          91
 Energy =  -2974.91336600 a.u.  #Cluster:    1
C          -1.03852000     -2.44697700      0.40046000
C          -1.54994700     -1.20466700     -0.02025000
C          -2.92124700     -1.05682600     -0.23749000
C          -3.78263200     -2.17975600     -0.11292600
C          -3.25693000     -3.40431000      0.29640400
C          -1.89889600     -3.54410300      0.56925600
H          -0.89184900     -0.36064100     -0.16140100
H          -3.91571000     -4.25916900      0.40300100
H          -1.49916600     -4.49727400      0.89802400
C          -5.49012400     -2.06379900     -1.83587700
C          -6.12203200     -2.74515900      0.39715600
C          -6.91747900     -1.57785200     -2.05610200
H          -5.38812600     -3.10283000     -2.18987200
H          -4.79172600     -1.44076600     -2.40218600
C          -7.52484000     -2.21637500      0.11808000
H          -6.09389500     -3.81871900      0.14753900
H          -5.87673500     -2.63084200      1.45705900
H          -7.21288500     -1.71674900     -3.09944800
H          -6.98293900     -0.50602300     -1.80858700
H          -8.27119500     -2.80815600      0.65446700
H          -7.59541400     -1.16767600      0.44686900
N          -5.16378900     -1.97265200     -0.39877800
O          -7.84471200     -2.31611100     -1.26684500
N          -3.56696800      0.14529600     -0.54861800
C          -3.11050400      1.43038300     -0.53347500
N          -1.79081100      1.66738800     -0.54994500
C          -4.05044200      2.48830700     -0.53349200
C          -1.40559500      2.94335500     -0.53889000
C          -3.53368200      3.76426400     -0.50963300
H          -5.11801800      2.30382600     -0.52663900
N          -2.21281600      4.02515300     -0.50262000
H          -4.18941400      4.63054400     -0.48797300
N          -0.05880100      3.26218200     -0.58493500
C           1.04223300      2.45152200     -0.81813800
C           2.19258000      3.06392200     -1.35606000
N           0.99869900      1.14813900     -0.50939500
C           3.28628000      2.25630000     -1.61285500
H           2.20673200      4.12521200     -1.57437500
C           2.06392100      0.39036400     -0.81642000
C           3.23512100      0.88195800     -1.37608800
H           1.97209800     -0.66635900     -0.59746700
H           4.06295200      0.22640900     -1.60568400
Cl          4.74764200      2.96757500     -2.27163000
C           0.35354500     -2.59488300      0.68616400
C           1.52369400     -2.75523100      0.96400600
C           2.95503200     -2.97448800      1.25918300
C           3.11439500     -3.83376400      2.52866200
H           2.63786600     -4.80310400      2.36135400
H           4.18029500     -3.98328100      2.72340600
H           2.65380700     -3.35082000      3.39354800
O           3.58816800     -3.68691100      0.21727800
C           3.63072500     -1.61413300      1.48311500
S           2.94447200     -0.42353800      2.56215000
C           5.14383700      0.01427800      1.36404400
C           4.29847000      0.61213300      2.24925400
H           6.05895000      0.44421900      0.97635100
H           4.38173800      1.58560400      2.71123300
N           4.76038100     -1.24405900      0.94107300
H           3.38712900     -3.22793900     -0.64004400
O           3.32765000     -2.31239300     -2.07786100
C           2.93748300     -2.97031700     -3.28017500
H           3.12230000     -2.33626300     -4.15646300
H           3.46339800     -3.92459800     -3.41528200
H           1.86490100     -3.16782000     -3.21099400
H           4.30952400     -2.16402200     -2.07789100
H           5.59271600     -1.82922500     -0.54984100
O           5.91013600     -2.01307500     -1.47272300
C           6.52934500     -3.30147100     -1.46372200
H           6.75202900     -3.56906100     -2.49991200
H           7.46925800     -3.28288400     -0.89692900
H           5.86762000     -4.05982000     -1.02909100
H           0.11584300      0.92741800      1.15471800
O          -0.11265800      0.96883300      2.11226700
C           0.45091600      2.16608700      2.63732500
H           1.52858300      2.21977000      2.43704800
H          -0.02662900      3.06212100      2.22050500
H           0.29657900      2.15572100      3.71923300
H           0.10478000      4.27116700     -0.66335700
O          -0.37600100      6.09942100     -0.49006400
C          -0.17540000      6.40963400      0.88694700
H          -0.26055200      5.51847200      1.52534300
H           0.83414500      6.81578400      0.99160200
H          -0.89347000      7.16120700      1.24180900
H          -1.23955000      5.61943500     -0.54872500
H          -1.89375500      0.86819200      2.33940100
O          -2.85070900      0.95691000      2.54920200
C          -3.05651100      2.30980000      2.91044000
H          -2.72389700      3.01011200      2.13102200
H          -4.13138400      2.45969200      3.05712500
H          -2.54526700      2.57891500      3.84913100
H          -4.57617200      0.03534900     -0.46522600
          91
 Energy =  -2974.90813400 a.u.  #Cluster:    2
C          -0.62191100     -2.09360700      0.16008800
C          -1.07891100     -0.77564800     -0.02830700
C          -2.43096100     -0.52474800     -0.27003300
C          -3.33505800     -1.61894600     -0.41605100
C          -2.85924400     -2.92193600     -0.21800900
C          -1.52211400     -3.16626100      0.08563500
H          -0.38163000      0.04818300      0.01925300
H          -3.54375300     -3.75683800     -0.31349700
H          -1.17441300     -4.18058200      0.24749400
C          -4.97614000     -0.79756000     -2.03031400
C          -5.68997200     -2.32848800     -0.30017000
C          -6.38118400     -0.20930300     -2.04588900
H          -4.89858200     -1.60031700     -2.78205000
H          -4.24531900     -0.02520200     -2.27881900
C          -7.07234000     -1.68458900     -0.36277500
H          -5.66865800     -3.21007600     -0.96302900
H          -5.49014600     -2.66413600      0.72216000
H          -6.64505300      0.12055200     -3.05438200
H          -6.42525400      0.64877400     -1.35956200
H          -7.84552600     -2.42490800     -0.14014800
H          -7.12437000     -0.86847600      0.37144900
N          -4.68996900     -1.33277400     -0.68637500
O          -7.35030900     -1.18464800     -1.66847500
N          -3.00328100      0.75708500     -0.29550400
C          -2.39713500      1.98153100     -0.31722400
N          -1.07325900      2.05539000     -0.50667900
C          -3.18537600      3.14580600     -0.15319800
C          -0.52233400      3.26865000     -0.51493600
C          -2.50492400      4.34487700     -0.16846700
H          -4.25788300      3.09322200     -0.02079000
N          -1.17408600      4.44153000     -0.34266300
H          -3.03532400      5.28435500     -0.03569100
N           0.83900700      3.41176700     -0.69215400
C           1.83447900      2.48045400     -0.96161900
C           3.15923200      2.97131600     -0.99966300
N           1.53112200      1.19867800     -1.18642500
C           4.16439600      2.07114300     -1.30242700
H           3.37564500      4.01486800     -0.80160300
C           2.53838800      0.36169900     -1.46789600
C           3.87549600      0.72948600     -1.55233100
H           2.26300200     -0.67412700     -1.63186100
H           4.64204900      0.00102400     -1.77758600
Cl          5.82795200      2.63003300     -1.36545800
C           0.75010600     -2.30969600      0.48682200
C           1.91362200     -2.46289500      0.79143300
C           3.31998600     -2.64148300      1.19175500
C           3.40620900     -3.42632300      2.51393900
H           2.96727200     -4.41844600      2.37488900
H           4.45778400     -3.53152300      2.79401200
H           2.86944400     -2.90369300      3.30880900
O           4.04099300     -3.41539200      0.23617700
C           3.97832000     -1.27242700      1.36093300
S           3.08455300      0.10483200      1.98169900
C           5.56664700      0.26392700      1.44557700
C           4.54608900      1.03263800      1.92482700
H           6.58169200      0.60783200      1.28779100
H           4.56227800      2.07461300      2.21100000
N           5.23934800     -1.04057400      1.13473000
H           4.01532400     -2.95552200     -0.64324400
O           2.87225100     -5.88274400     -0.43195900
C           1.47016200     -5.82226400     -0.22278500
H           1.20986700     -5.58243800      0.81875700
H           0.97899800     -5.08199300     -0.87098400
H           1.05982400     -6.80913400     -0.45906600
H           3.25742700     -5.02402500     -0.15327500
H           4.59479900     -2.78263300     -2.76623800
O           3.78607200     -2.52066900     -2.29723900
C           2.70453700     -3.34722800     -2.76594000
H           2.85157100     -4.39211300     -2.47310700
H           1.80046000     -2.96867900     -2.28608400
H           2.59800000     -3.26730100     -3.85238600
H          -3.64911700     -1.59564400      1.89415900
O          -4.02969100     -1.00650800      2.56755600
C          -2.93898000     -0.32133500      3.19715300
H          -3.37090400      0.31625500      3.97080000
H          -2.24653500     -1.03071200      3.66429800
H          -2.38722800      0.30150700      2.48368200
H           1.14731000      4.38587400     -0.62438200
O           0.93488200      6.23579900     -0.18819900
C           1.22637500      6.31793900      1.20481700
H           0.60889200      7.07622900      1.70511700
H           1.07601600      5.35491100      1.71334800
H           2.27697200      6.60287000      1.30692700
H           0.01402900      5.88006500     -0.26460900
H          -5.08163400      0.19338600      1.67733200
O          -5.48952600      0.98930800      1.26536500
C          -5.50550200      2.01079600      2.25898900
H          -6.03040700      1.68349400      3.16626300
H          -4.49269600      2.33462600      2.53553600
H          -6.03844900      2.86938200      1.84139700
H          -3.99509900      0.77656800     -0.04041100
          91
 Energy =  -2974.90716500 a.u.  #Cluster:    3
C          -0.52999700     -1.99647800      0.00279800
C          -1.19525100     -0.77318300      0.17768100
C          -2.54794000     -0.64599400     -0.13294600
C          -3.25561100     -1.75922000     -0.67017600
C          -2.57570200     -2.97999200     -0.82071100
C          -1.22994300     -3.10932700     -0.48778000
H          -0.64744600      0.08134800      0.54165000
H          -3.10443300     -3.83358300     -1.22908100
H          -0.70679400     -4.04841100     -0.63279300
C          -4.96355500     -0.69105500     -2.06543300
C          -5.45523900     -2.81236300     -1.01451600
C          -6.44446900     -0.34350700     -1.98714100
H          -4.74099500     -1.16426100     -3.03620300
H          -4.36381400      0.21665300     -1.98218300
C          -6.92243400     -2.39386000     -0.96031500
H          -5.27624300     -3.39915900     -1.93145800
H          -5.22710300     -3.44728500     -0.15290600
H          -6.73782900      0.27230300     -2.84171400
H          -6.63922300      0.20721800     -1.05584400
H          -7.57058500     -3.26887200     -1.05892500
H          -7.12160400     -1.89907100      0.00141200
N          -4.62417100     -1.61097700     -0.96565000
O          -7.25101800     -1.51894100     -2.03581900
N          -3.28392600      0.51941200      0.15188500
C          -2.81094700      1.79362200      0.26309900
N          -1.54449500      2.03852700     -0.10240700
C          -3.65154400      2.83015000      0.73431300
C          -1.09323200      3.28154400      0.03052000
C          -3.07819000      4.08266000      0.81777100
H          -4.68246600      2.65167200      1.01229100
N          -1.80031600      4.34291900      0.48415200
H          -3.65650200      4.93158000      1.17365100
N           0.21095000      3.58304000     -0.31344200
C           1.22723100      2.78763600     -0.82859500
C           2.40764900      3.45656000     -1.22871000
N           1.08124300      1.46259400     -0.92426700
C           3.41805500      2.69126500     -1.77930900
H           2.50924900      4.52982300     -1.11559300
C           2.08317800      0.76152200     -1.47242300
C           3.27123200      1.31189300     -1.93606100
H           1.92842400     -0.31254600     -1.52830900
H           4.05004800      0.69836400     -2.36829200
Cl          4.91380900      3.46417000     -2.27773600
C           0.84710400     -2.09357900      0.35468600
C           2.02078300     -2.16115500      0.64641900
C           3.44061100     -2.32937600      0.97452100
C           3.61310700     -2.92605700      2.38010300
H           3.09762600     -3.88932900      2.42383100
H           4.67544200     -3.07509000      2.58621300
H           3.17849700     -2.26124900      3.13081700
O           4.03687500     -3.25060300      0.02897400
C           4.17759900     -1.00260000      0.83604200
S           3.81072200      0.42643400      1.76180900
C           5.69670900      0.40546300      0.04664200
C           5.10638500      1.24368800      0.94488200
H           6.51996200      0.66571300     -0.60631500
H           5.33544600      2.27808400      1.15716200
N           5.15919500     -0.86530300     -0.01067300
H           4.54239400     -2.69261400     -0.60218100
O           1.94880200     -4.65967400     -1.49777300
C           1.79205700     -3.78126700     -2.60207000
H           2.74948000     -3.55929200     -3.09732100
H           1.13991800     -4.27792000     -3.32688100
H           1.32256800     -2.83009500     -2.31393700
H           2.58410600     -4.23268300     -0.89251100
H           5.51982200     -4.17463500      0.81383400
O           6.34358400     -4.43337600      1.27058000
C           7.38437900     -3.62812000      0.73216500
H           7.16955200     -2.55459300      0.82104700
H           8.29508100     -3.84908100      1.29700100
H           7.57780900     -3.85110400     -0.32848300
H          -3.70913200     -2.49393400      1.49244100
O          -4.19381200     -2.20621100      2.28479800
C          -3.22862500     -1.66333200      3.19588800
H          -2.47589000     -2.41354100      3.46295800
H          -2.72610000     -0.78500800      2.77422800
H          -3.77309600     -1.36916000      4.09519300
H           0.42705600      4.57941800     -0.21797800
O           0.11092200      6.35129200      0.43477900
C           0.67322200      6.35763500      1.74454100
H           0.09864200      6.99494500      2.43040600
H           0.72876400      5.34634700      2.17211400
H           1.68805200      6.75719700      1.66750600
H          -0.76417400      5.89273000      0.50437500
H          -5.31862400     -0.89569900      1.72834500
O          -5.76999100     -0.04625400      1.51202000
C          -5.91620100      0.67940700      2.73064200
H          -6.45016300      0.09136800      3.48822500
H          -4.94719800      0.99020700      3.14515300
H          -6.50215900      1.57612300      2.51176300
H          -4.25745200      0.36646600      0.44303200
