          61
 Energy =  -2396.54856100 a.u.  #Cluster:    1
C           3.42750000      1.33093800      0.18165300
C           2.06396500      1.02470300      0.34326700
C           1.09835400      2.02444400      0.25792600
C           1.48475500      3.37054500      0.02950900
C           2.84606100      3.66824200     -0.08826500
C           3.81056300      2.66638800     -0.02190100
H           1.77456500      0.00744100      0.57601200
H           3.15660500      4.69326200     -0.25593000
H           4.86081800      2.91205200     -0.13625400
C           0.82677300      5.71929600      0.32810300
C          -0.34251200      4.32834800     -1.26298800
C          -0.45026000      6.53843800      0.48751700
H           1.45639500      6.18793100     -0.44677200
H           1.38620700      5.71059600      1.26821800
C          -1.57804800      5.19878500     -1.07259500
H           0.25455400      4.70881800     -2.10782800
H          -0.64110700      3.30288800     -1.49146600
H          -0.20956100      7.58410800      0.69623800
H          -1.04281900      6.13342700      1.32263300
H          -2.14335800      5.26895300     -2.00565200
H          -2.22456900      4.75613500     -0.29800100
N           0.46030400      4.34610500     -0.02385000
O          -1.22290700      6.52923000     -0.70904900
N          -0.26294200      1.78742600      0.49131500
H          -0.76969900      2.58336600      0.86808800
C          -1.04324600      0.72435800      0.13197800
N          -2.30747700      0.78333800      0.58184300
C          -0.60367600     -0.34898400     -0.67619500
C          -3.11987800     -0.23037200      0.24482600
C          -1.54182700     -1.32478400     -0.94790600
H           0.39415800     -0.39734100     -1.08727900
N          -2.80837200     -1.30345400     -0.49462800
H          -1.27607100     -2.17752600     -1.56867900
N          -4.39939900     -0.09493000      0.74585300
H          -4.54468800      0.74342500      1.29510300
C          -5.53406500     -0.88525000      0.62771300
C          -5.58099800     -2.09625600     -0.08636600
N          -6.59784100     -0.37087900      1.27240600
C          -6.79685100     -2.76215500     -0.10660600
H          -4.70075700     -2.46955100     -0.58687500
C          -7.74650200     -1.05105400      1.22356900
C          -7.91818500     -2.25805600      0.54930000
H          -8.58503900     -0.60684800      1.75534400
H          -8.87086000     -2.77233800      0.53825600
Cl         -6.91779200     -4.28009300     -0.98393200
C           4.39769600      0.28718500      0.24684000
C           5.20292600     -0.61827600      0.29597800
C           6.16363500     -1.74056500      0.32874600
C           7.20413300     -1.59428100     -0.79069100
H           7.77883000     -0.67903400     -0.62645800
H           7.87978400     -2.45372700     -0.77086200
H           6.72225400     -1.53290100     -1.77049400
O           6.86766200     -1.77400900      1.56679300
H           6.37010400     -2.39310900      2.13674200
C           5.36704100     -3.03694800      0.19728500
S           4.55886600     -3.55292500     -1.26319300
C           4.40212200     -4.90767100      0.89036600
C           3.96149200     -4.93800900     -0.39944900
H           4.17906100     -5.65248500      1.64447400
H           3.34224600     -5.67735200     -0.88741200
N           5.19425800     -3.82583600      1.21922700
          61
 Energy =  -2396.54836500 a.u.  #Cluster:    2
C           2.92994300      0.53377600      0.09574900
C           1.55244900      0.34274700      0.30697900
C           0.67118900      1.41933100      0.24640200
C           1.15846500      2.72747900     -0.00661000
C           2.53504100      2.91119300     -0.17131300
C           3.41425000      1.83274500     -0.13010900
H           1.18593300     -0.64508000      0.55781300
H           2.92360200      3.90614000     -0.35646800
H           4.47689500      1.98968900     -0.28091200
C           0.70631200      5.12562000      0.28134300
C          -0.62982100      3.81810200     -1.24722800
C          -0.49231000      6.05029100      0.47283200
H           1.34432400      5.53100100     -0.52184200
H           1.29684900      5.08177400      1.20125900
C          -1.78247600      4.78844900     -1.02454800
H          -0.03466900      4.13879700     -2.11784600
H          -1.01927800      2.81849100     -1.45160300
H          -0.15810700      7.07491500      0.65576000
H          -1.08514700      5.70787500      1.33540800
H          -2.37553200      4.89309200     -1.93689600
H          -2.43243600      4.40870700     -0.21989200
N           0.21584700      3.78323600     -0.03748400
O          -1.30684600      6.08969300     -0.69470800
N          -0.69676700      1.29606200      0.52882200
H          -1.12150700      2.13507200      0.91368600
C          -1.58385200      0.32742400      0.14921000
N          -2.83468300      0.50808700      0.60394300
C          -1.25795300     -0.76945100     -0.68051300
C          -3.74853000     -0.40789600      0.24769800
C          -2.29316400     -1.63567600     -0.97101900
H          -0.26997800     -0.91408300     -1.09285100
N          -3.55084800     -1.49123300     -0.51558600
H          -2.11788700     -2.49842600     -1.60984400
N          -5.00722400     -0.14975600      0.75340100
H          -5.06511900      0.68883500      1.31819300
C          -6.21749800     -0.81630100      0.62245000
C          -6.38839900     -2.00418900     -0.11123400
N          -7.22313000     -0.20564900      1.27642200
C          -7.66610700     -2.54133100     -0.14048000
H          -5.55106500     -2.45757800     -0.61903600
C          -8.43563400     -0.76321700      1.21789800
C          -8.73002300     -1.93534800      0.52472800
H          -9.22446800     -0.24369000      1.75743000
H          -9.73046100     -2.34880800      0.50647400
Cl         -7.94169300     -4.02461400     -1.04184800
C           3.82182700     -0.57892600      0.13942300
C           4.58155500     -1.52368900      0.16776300
C           5.51155900     -2.67175800      0.20925900
C           5.41319200     -3.39910600      1.55784300
H           4.40255600     -3.79873500      1.67519800
H           6.13218600     -4.22269900      1.57810200
H           5.61773800     -2.71761900      2.38839300
O           5.19501500     -3.61528600     -0.81028100
H           5.76147700     -3.38064200     -1.57175300
C           6.92136600     -2.14561700     -0.04947100
S           7.84383400     -1.19439600      1.08867200
C           8.75487700     -1.74448700     -1.22758300
C           9.11243400     -1.07711100     -0.09373100
H           9.36374900     -1.83235800     -2.11907100
H          10.02701900     -0.54160600      0.11834900
N           7.51155200     -2.34330000     -1.19378900
          61
 Energy =  -2396.54811800 a.u.  #Cluster:    3
C          -3.21824500      1.20193800     -0.47226200
C          -1.87897700      0.86637500     -0.20236300
C          -0.92262900      1.86180600     -0.01713500
C          -1.29629500      3.22933100     -0.07731900
C          -2.63774800      3.54962500     -0.30925100
C          -3.59067200      2.55548200     -0.51216100
H          -1.60584100     -0.17620500     -0.09592000
H          -2.93935500      4.59001300     -0.35165700
H          -4.62350900      2.82196700     -0.70892000
C           0.66553900      4.37084700     -0.96454900
C          -0.71590400      5.49726600      0.66602800
C           1.85343100      5.19349200     -0.48265000
H           0.17431700      4.88302900     -1.80794900
H           1.00620700      3.39296100     -1.31200600
C           0.51786000      6.27493900      1.11300600
H          -1.25093600      6.08637700     -0.09765700
H          -1.38824100      5.34152200      1.51489200
H           2.53230200      5.40725800     -1.31240700
H           2.40191700      4.63025500      0.28931600
H           0.23641200      7.27549600      1.45157400
H           1.00730700      5.74049200      1.94214200
N          -0.28741700      4.19592000      0.14967200
O           1.43515000      6.45167100      0.03772400
N           0.40404500      1.58362600      0.33908700
H           0.85092900      2.30862600      0.89307800
C           1.23822100      0.58946200     -0.08991500
N           2.43988700      0.57183400      0.51003500
C           0.91344600     -0.33930300     -1.10473600
C           3.30193200     -0.37774400      0.11446000
C           1.89208500     -1.26224900     -1.41545300
H          -0.02814700     -0.31690500     -1.63376300
N           3.09631300     -1.31769800     -0.81793400
H           1.71462900     -2.00367400     -2.19128300
N           4.51168300     -0.32819600      0.77831100
H           4.57854700      0.41146800      1.46681000
C           5.66024600     -1.10095500      0.68005200
C           5.80811900     -2.18579300     -0.20310900
N           6.63004100     -0.70385900      1.52475900
C           7.02322200     -2.85276300     -0.17436100
H           5.00113600     -2.46769100     -0.86188800
C           7.78244200     -1.37940800      1.51440800
C           8.04865400     -2.46839400      0.68728600
H           8.54367400     -1.03177500      2.20932900
H           8.99999300     -2.98447400      0.71563400
Cl          7.26759800     -4.21674500     -1.25513000
C          -4.18479400      0.17111000     -0.66667000
C          -4.99910200     -0.71262400     -0.83026000
C          -5.99349300     -1.79144000     -1.00799800
C          -7.40924700     -1.20875700     -1.11067200
H          -7.46968300     -0.57165100     -1.99679800
H          -8.13075500     -2.02501200     -1.20257000
H          -7.65202500     -0.60608100     -0.23099700
O          -5.74218500     -2.52086600     -2.20594500
H          -5.16978400     -3.26860800     -1.94366000
C          -5.85626600     -2.75250200      0.17096100
S          -6.39743000     -2.40601300      1.79566900
C          -5.19812200     -4.58345100      1.23180600
C          -5.75727400     -3.94210700      2.29723600
H          -4.73084300     -5.56004700      1.26575300
H          -5.83874900     -4.27429200      3.32252300
N          -5.25627700     -3.90073000      0.03355800
          61
 Energy =  -2396.54809200 a.u.  #Cluster:    4
C          -3.42706200      1.33724400      0.13393800
C          -2.06324000      1.02831100      0.28720400
C          -1.09748700      2.02876500      0.20972900
C          -1.48380400      3.37671300     -0.00765900
C          -2.84499000      3.67581300     -0.12040800
C          -3.81031100      2.67444000     -0.05658400
H          -1.77403600      0.00886400      0.51029700
H          -3.15544600      4.70226500     -0.27938100
H          -4.86086700      2.92208600     -0.16343500
C           0.33984400      4.34564900     -1.29666600
C          -0.82333600      5.72219000      0.31131000
C           1.57626100      5.21406400     -1.10267400
H          -0.25996600      4.73363400     -2.13612500
H           0.63752000      3.32212000     -1.53506100
C           0.45446600      6.53955000      0.47375900
H          -1.45556400      6.19822200     -0.45691900
H          -1.37953100      5.70486800      1.25324300
H           2.13835500      5.29272100     -2.03699500
H           2.22536000      4.76415500     -0.33443300
H           0.21481600      7.58331800      0.69299400
H           1.04985500      6.12667900      1.30300400
N          -0.45851800      4.35223500     -0.05460800
O           1.22283700      6.54120500     -0.72556800
N           0.26394000      1.79167700      0.44060700
H           0.76973800      2.58713300      0.81982800
C           1.04410400      0.72580600      0.08988300
N           2.30543800      0.78407300      0.54811100
C           0.60835100     -0.34927000     -0.71802000
C           3.11844000     -0.23195500      0.21987800
C           1.54674300     -1.32753600     -0.98014100
H          -0.38635500     -0.39687300     -1.13669100
N           2.81014900     -1.30700100     -0.51811500
H           1.28385100     -2.18170100     -1.60016700
N           4.39467500     -0.09692100      0.72934300
H           4.53726200      0.74264300      1.27745100
C           5.52857200     -0.88995900      0.62278800
C           5.57904200     -2.10263600     -0.08817400
N           6.58788000     -0.37631000      1.27537100
C           6.79358400     -2.77118700     -0.09642000
H           4.70231200     -2.47513300     -0.59541300
C           7.73546300     -1.05902800      1.23793700
C           7.91031300     -2.26797800      0.56798600
H           8.57036300     -0.61535100      1.77584000
H           8.86194300     -2.78430500      0.56634200
Cl          6.91880700     -4.29134500     -0.96927700
C          -4.39797800      0.29406300      0.20130400
C          -5.20488900     -0.60959700      0.25276100
C          -6.16359100     -1.73223300      0.32772900
C          -6.77975300     -1.82712600      1.73110100
H          -7.34700800     -0.91505200      1.93416800
H          -7.45224800     -2.68832800      1.77358800
H          -6.00410600     -1.93356800      2.49470800
O          -7.22975400     -1.55099600     -0.59842000
H          -6.97000300     -2.04565400     -1.40073300
C          -5.41459100     -3.00908200     -0.04827200
S          -4.19374300     -3.76481900      0.94673500
C          -4.80468700     -4.69937100     -1.34490200
C          -3.96783600     -4.95531200     -0.29952200
H          -4.87051400     -5.28866200     -2.25131200
H          -3.25246300     -5.75724000     -0.18391800
N          -5.61749800     -3.59354800     -1.19445500
          61
 Energy =  -2396.54784600 a.u.  #Cluster:    5
C          -3.01507500      0.81467500     -0.52172000
C          -1.66786700      0.54764100     -0.21794000
C          -0.75782800      1.59026600     -0.06003000
C          -1.18778400      2.93676800     -0.18171600
C          -2.53729400      3.18994300     -0.44610400
C          -3.44382600      2.14834900     -0.62254900
H          -1.35207600     -0.47694900     -0.06494800
H          -2.88166300      4.21410400     -0.53425300
H          -4.48372500      2.36214900     -0.84484900
C           0.73350900      4.12650800     -1.09252400
C          -0.70913600      5.25323400      0.48396300
C           1.88294900      5.01225000     -0.62943000
H           0.23128600      4.58878400     -1.95800400
H           1.11591300      3.15114700     -1.40182700
C           0.48796400      6.09489800      0.91457800
H          -1.25898900      5.79273300     -0.30547900
H          -1.38386000      5.10043900      1.33148600
H           2.56142000      5.22424300     -1.45997200
H           2.44521900      4.49836200      0.16665900
H           0.16391000      7.09486800      1.21458700
H           0.98877000      5.60956400      1.76677400
N          -0.22267200      3.95306200      0.01898600
O           1.40934000      6.26995700     -0.15756900
N           0.57402500      1.38452200      0.32526200
H           0.98104600      2.15322900      0.85059800
C           1.46088500      0.41961900     -0.06321300
N           2.65805500      0.48642300      0.54228900
C           1.19064700     -0.56219300     -1.04352800
C           3.57051700     -0.43104400      0.18642700
C           2.21781800     -1.44384100     -1.31527500
H           0.25207300     -0.60925000     -1.57627700
N           3.41972300     -1.41419000     -0.71136600
H           2.08365400     -2.22206400     -2.06327900
N           4.77187500     -0.29401300      0.85326300
H           4.79544000      0.47225900      1.51495300
C           5.95898100     -1.01014900      0.79007600
C           6.16926700     -2.11591400     -0.05356400
N           6.90009000     -0.53502000      1.62695100
C           7.41630700     -2.71863700      0.00674900
H           5.38301900     -2.46106700     -0.70721800
C           8.08527500     -1.15094400      1.64820600
C           8.41341900     -2.25297400      0.86156600
H           8.82191200     -0.74106600      2.33567200
H           9.38941200     -2.71861100      0.91451400
Cl          7.73891300     -4.10465000     -1.02432900
C          -3.93624800     -0.26125500     -0.69181100
C          -4.71618000     -1.17850200     -0.83636200
C          -5.68259000     -2.28491200     -1.00343100
C          -6.58173600     -2.03662900     -2.22239500
H          -5.96362700     -2.01375100     -3.12360000
H          -7.31174200     -2.84650800     -2.30460100
H          -7.10713600     -1.08138900     -2.13521200
O          -5.00325200     -3.51863600     -1.21121400
H          -4.92329600     -3.92753600     -0.32674200
C          -6.49465800     -2.39977700      0.28522600
S          -7.72527200     -1.26373900      0.78174800
C          -7.07937900     -3.24675200      2.24772300
C          -7.93119400     -2.18209600      2.24321500
H          -7.00420700     -3.98315000      3.03847900
H          -8.65736100     -1.89116300      2.98903900
N          -6.26848300     -3.35967700      1.13640800
          61
 Energy =  -2396.54781700 a.u.  #Cluster:    6
C          -3.39784500      1.32012200     -0.25282800
C          -2.25137400      0.67309800     -0.74459900
C          -0.98811800      1.24124800     -0.61447400
C          -0.83159500      2.51860400     -0.00943000
C          -1.98092800      3.13372300      0.51853300
C          -3.23725300      2.55389700      0.40194300
H          -2.34041000     -0.30358600     -1.20879700
H          -1.89239700      4.10284300      0.99523200
H          -4.10751100      3.06448300      0.80104900
C           1.16718000      3.40085800     -1.14148300
C           0.65247500      4.12693600      1.11109600
C           2.64756800      3.57958200     -0.82766800
H           0.77336900      4.32644300     -1.59327900
H           1.03602200      2.58920500     -1.85686700
C           2.15275200      4.27192300      1.35361900
H           0.23617800      5.10181900      0.80386400
H           0.16388900      3.82316200      2.04144600
H           3.19002600      3.89735800     -1.72213100
H           3.06955800      2.62649300     -0.47464100
H           2.34708500      5.08645200      2.05653100
H           2.54394200      3.33257500      1.77324100
N           0.43733600      3.09844200      0.09781600
O           2.84681700      4.59434600      0.15280100
N           0.12980600      0.52357800     -1.10743300
H           0.12210400      0.20899500     -2.07017400
C           1.24645300      0.18485700     -0.39724000
N           2.25433800     -0.33083100     -1.11622200
C           1.34952200      0.35005900      1.00291300
C           3.36590400     -0.67033100     -0.44090400
C           2.54640000     -0.03134700      1.56938200
H           0.53644800      0.74854400      1.59249200
N           3.58269800     -0.54014400      0.87259800
H           2.70206700      0.06857400      2.64121900
N           4.35470600     -1.19894000     -1.24954100
H           4.10553700     -1.25435900     -2.22944800
C           5.63336400     -1.65941400     -0.97370400
C           6.20330100     -1.67990000      0.31254900
N           6.28285300     -2.09058500     -2.07142400
C           7.49464800     -2.17318400      0.41539200
H           5.64272300     -1.32301300      1.16282900
C           7.52525400     -2.55713300     -1.91909300
C           8.19569900     -2.62769300     -0.69985700
H           8.02001900     -2.89691100     -2.82634400
H           9.20431200     -3.01434600     -0.62726600
Cl          8.26024300     -2.22267900      1.99690400
C          -4.68384000      0.71984100     -0.38556400
C          -5.77825300      0.20813500     -0.49527100
C          -7.10955700     -0.42394400     -0.60192400
C          -8.16625200      0.42617700      0.11696400
H          -8.23593000      1.39992700     -0.37475000
H          -9.13521000     -0.07719900      0.06111800
H          -7.89793400      0.58318500      1.16549200
O          -7.50932600     -0.54473900     -1.96434600
H          -7.23171300     -1.43988000     -2.24237500
C          -7.01278800     -1.82786800     -0.00890400
S          -6.85807500     -2.16805600      1.69784300
C          -6.84556700     -4.03755300     -0.03502300
C          -6.75865500     -3.86046700      1.31402100
H          -6.81466000     -4.99385800     -0.54273100
H          -6.65277700     -4.60500700      2.09033600
N          -6.98610200     -2.88090100     -0.77540000
          61
 Energy =  -2396.54748000 a.u.  #Cluster:    7
C           2.93442500      0.55321900      0.26033000
C           1.55275900      0.36150300      0.44113900
C           0.66976500      1.43299400      0.33247200
C           1.15898300      2.73659900      0.06099800
C           2.53851200      2.92199300     -0.07315500
C           3.42005800      1.84834700      0.01604600
H           1.18322500     -0.62157300      0.70580000
H           2.92825700      3.91382000     -0.27211500
H           4.48566500      2.00576900     -0.11161000
C           0.68858100      5.13856700      0.28179100
C          -0.59553500      3.79004100     -1.25553000
C          -0.51879400      6.06191700      0.41580500
H           1.34900100      5.52809300     -0.51107700
H           1.25123000      5.11885800      1.21984900
C          -1.75855900      4.75950000     -1.08991800
H           0.02422900      4.09381300     -2.11496000
H          -0.97437800      2.78402300     -1.44834300
H          -0.19424800      7.09207600      0.58437900
H          -1.13567900      5.73692400      1.26819600
H          -2.32463700      4.84051400     -2.02160900
H          -2.43033100      4.39474300     -0.29636000
N           0.21309900      3.78708300     -0.02025800
O          -1.29849800      6.07027700     -0.77602300
N          -0.70477400      1.31143700      0.58174700
H          -1.14207700      2.15896000      0.93263000
C          -1.57883500      0.33191800      0.19977100
N          -2.84250600      0.52000100      0.61426700
C          -1.22742200     -0.78304200     -0.59463200
C          -3.74414500     -0.40617500      0.25339400
C          -2.25245100     -1.65803900     -0.89483900
H          -0.22771000     -0.93477900     -0.97490600
N          -3.52292900     -1.50606200     -0.47914800
H          -2.05750100     -2.53472000     -1.50850800
N          -5.01707200     -0.13988400      0.71754700
H          -5.09204000      0.71010300      1.26298400
C          -6.22221400     -0.81146000      0.56663100
C          -6.37127900     -2.01334400     -0.14881000
N          -7.24626800     -0.19055200      1.18117200
C          -7.64695300     -2.55337500     -0.20284700
H          -5.51967800     -2.47471300     -0.62470100
C          -8.45591600     -0.75149400      1.10010400
C          -8.72957600     -1.93706000      0.42143600
H          -9.25991000     -0.22340600      1.60802600
H          -9.72854200     -2.35276600      0.38373800
Cl         -7.89565400     -4.05388100     -1.08336800
C           3.82980100     -0.55390000      0.35111700
C           4.59424900     -1.49289900      0.41727800
C           5.53652900     -2.62898400      0.49913100
C           5.68035400     -3.11178900      1.94949000
H           4.71204400     -3.47624100      2.30219500
H           6.40945700     -3.92576900      1.98888200
H           6.00703900     -2.29903100      2.60422500
O           5.06830900     -3.72960300     -0.27421500
H           5.49457100     -3.63776400     -1.14922700
C           6.87323800     -2.17237500     -0.08103100
S           7.95578900     -1.04706000      0.70203000
C           8.47500100     -2.00369900     -1.60301100
C           9.00537500     -1.15239200     -0.67952100
H           8.92710800     -2.25297600     -2.55519500
H           9.93247200     -0.59837600     -0.72127500
N           7.26641000     -2.57366000     -1.25620800
          61
 Energy =  -2396.54741400 a.u.  #Cluster:    8
C          -2.98123500      0.79531400     -0.52732300
C          -1.59688900      0.57181100     -0.63483000
C          -0.69309900      1.61036200     -0.42323100
C          -1.16204600      2.91341400     -0.11630400
C          -2.54206100      3.13038500     -0.04652900
C          -3.44554000      2.08974100     -0.24167500
H          -1.23857700     -0.40747500     -0.92769600
H          -2.91654500      4.12190400      0.18099100
H          -4.51213500      2.27277200     -0.16798200
C          -0.63231600      5.30948700     -0.21163100
C           0.56479200      3.87203500      1.31498700
C           0.59909900      6.20785700     -0.26778500
H          -1.31227700      5.68325700      0.57234600
H          -1.16073600      5.34000500     -1.16908500
C           1.75493800      4.81890700      1.22711500
H          -0.07771600      4.15866700      2.16350700
H           0.91295000      2.85039800      1.48162000
H           0.30458900      7.25131800     -0.40712300
H           1.23797000      5.90018500     -1.11029800
H           2.28997600      4.85008000      2.17990500
H           2.44510800      4.46917900      0.44269200
N          -0.19883600      3.93651500      0.05300800
O           1.33675900      6.15173900      0.94953400
N           0.68921200      1.45792100     -0.60407600
H           1.17038000      2.30137400     -0.90302300
C           1.50836500      0.42695500     -0.23690400
N           2.79390700      0.57916600     -0.59494900
C           1.08077400     -0.70624500      0.49188600
C           3.64143700     -0.40092600     -0.24494600
C           2.05572300     -1.63776800      0.78786000
H           0.06160000     -0.83048900      0.82794200
N           3.34649300     -1.52232900      0.42628200
H           1.80098300     -2.53199700      1.35232500
N           4.94134700     -0.16988700     -0.64938100
H           5.07258800      0.69879100     -1.15315100
C           6.10915300     -0.90330900     -0.49308600
C           6.18059200     -2.14097300      0.17163100
N           7.17955500     -0.30463500     -1.04774300
C           7.42816200     -2.74178100      0.23975500
H           5.29408400     -2.58284700      0.59988600
C           8.35927700     -0.92446400     -0.95577200
C           8.55704500     -2.15001800     -0.32340700
H           9.20222600     -0.41279600     -1.41499500
H           9.53439400     -2.61328100     -0.27474800
Cl          7.58037400     -4.28909200      1.05896900
C          -3.89863100     -0.27612000     -0.74128700
C          -4.67787700     -1.18725000     -0.92295800
C          -5.64212500     -2.28626800     -1.14370900
C          -6.41879400     -2.07014200     -2.45030200
H          -5.71818900     -2.08901000     -3.28909500
H          -7.15178300     -2.87228400     -2.57277000
H          -6.93326800     -1.10504900     -2.44721600
O          -4.96592400     -3.53485600     -1.24629500
H          -4.97635200     -3.91555800     -0.34589200
C          -6.57337100     -2.34570600      0.06538200
S          -7.81831400     -1.17000800      0.41137700
C          -7.36164400     -3.12262000      1.98514600
C          -8.18362900     -2.04096500      1.87055800
H          -7.37912800     -3.83712100      2.79901600
H          -8.97028300     -1.71352300      2.53549000
N          -6.45174700     -3.28491300      0.95987300
          61
 Energy =  -2396.54740100 a.u.  #Cluster:    9
C          -3.08812800      0.99696400     -0.55710700
C          -1.74923700      0.69019200     -0.25357600
C          -0.81635100      1.70624900     -0.06055800
C          -1.21463800      3.06537800     -0.14466300
C          -2.55651800      3.35727100     -0.40832000
C          -3.48551900      2.34254400     -0.62080700
H          -1.45826000     -0.34551300     -0.12893600
H          -2.87695100      4.39117000     -0.46856000
H          -4.51869400      2.58676200     -0.84309000
C           0.73713500      4.23458200     -1.01392800
C          -0.68701000      5.35084200      0.58684600
C           1.90304100      5.08379700     -0.52461900
H           0.24807200      4.72902700     -1.86911600
H           1.10051200      3.25970000     -1.34670000
C           0.52615100      6.15550700      1.04250800
H          -1.22222700      5.92262900     -0.18978400
H          -1.36794400      5.19059200      1.42801200
H           2.58897400      5.30233900     -1.34728700
H           2.45137100      4.53831300      0.26010900
H           0.22197000      7.15390500      1.36750600
H           1.01425100      5.63815000      1.88319700
N          -0.22730300      4.05289900      0.08922300
O           1.45427000      6.33885300     -0.02235500
N           0.50827300      1.45853100      0.32476100
H           0.93029100      2.20155900      0.87453600
C           1.37343900      0.48250900     -0.08434100
N           2.56737600      0.50224600      0.53085300
C           1.08604100     -0.46453000     -1.09351900
C           3.45902800     -0.42800200      0.15580900
C           2.09253100     -1.36432800     -1.38255200
H           0.15077400     -0.47258100     -1.63402900
N           3.29013600     -1.38204500     -0.76967700
H           1.94443400     -2.11789700     -2.15283200
N           4.65856100     -0.33987300      0.83407100
H           4.69684200      0.40738300      1.51650400
C           5.82842400     -1.08256400      0.75764300
C           6.01699900     -2.17009200     -0.11437800
N           6.77581700     -0.65289400      1.61178700
C           7.24889600     -2.80411500     -0.06397800
H           5.22659000     -2.47859800     -0.78123800
C           7.94577900     -1.29751500      1.62242700
C           8.25197900     -2.38562900      0.80806800
H           8.68805400     -0.92410400      2.32445300
H           9.21622900     -2.87589600      0.85346800
Cl          7.54404000     -4.16951800     -1.13021200
C          -4.03097700     -0.05333500     -0.76376300
C          -4.82650500     -0.95154400     -0.94003100