          74
 Energy =  -2280.61358900 a.u.  #Cluster:    1
C          -0.39191000     -0.57363100      0.61091300
C          -0.28467800     -3.00915000     -0.05368000
C          -1.76296700     -3.01843300      0.32721800
C          -2.43274200     -1.70348200     -0.07137600
C           0.56132000      0.42927800      0.76799200
C           1.79936100     -0.21782500      0.55349200
H          -0.15438700     -3.14135700     -1.13326600
H          -2.25770200     -3.85193000     -0.17860600
H          -2.36617400     -1.54056200     -1.15420600
H           0.40007200      1.47267900      0.97899300
H           0.27453700     -3.79470600      0.45928200
H          -1.87477600     -3.16514000      1.40667700
H          -3.48300600     -1.69526600      0.20851000
N           1.62620500     -1.52229500      0.27224700
C           3.10520000      0.33524900      0.59952000
C           4.23369100      0.77353000      0.63442400
C           5.61986500      1.28346000      0.65159600
C           6.29951700      0.91263600      1.97479100
H           7.32806100      1.28591100      1.97257300
H           5.75245500      1.38979500      2.79129100
H           6.28404500     -0.17068000      2.11757300
O           5.64549900      2.69923300      0.55590600
C           6.33889900      0.65032100     -0.54923500
S           7.51937500     -0.62629300     -0.40412000
C           6.85700500      0.28238200     -2.68499800
C           7.68933100     -0.64386000     -2.12712300
H           6.75647100      0.48231600     -3.74442000
H           8.37238800     -1.32178500     -2.61879500
N           6.09948500      1.00133400     -1.78821200
C          -2.53613600      0.38771800      1.27467400
N          -3.81893200      0.46515200      0.89111200
C          -2.02136900      1.22512400      2.28012100
C          -4.58767700      1.37632800      1.50002200
C          -2.91718100      2.13320900      2.82910200
H          -1.00956700      1.14589400      2.64808100
N          -4.19712900      2.24349600      2.46106700
H          -2.58790100      2.80479900      3.61953600
N          -1.77958800     -0.58648100      0.63759100
N          -5.90964000      1.48905400      1.15565300
H          -6.39090400      2.17804000      1.71886100
C          -6.69904800      0.79543200      0.22329200
C          -8.09638000      1.01832600      0.31622100
C          -6.18216200     -0.04716300     -0.77112800
C          -8.90150500      0.38033600     -0.59970500
H          -8.51564900      1.66355300      1.08097500
C          -7.03373200     -0.69226800     -1.68783000
H          -5.11573900     -0.19579200     -0.83429700
C          -8.38822400     -0.46197900     -1.58381800
H          -6.62840600     -1.34708200     -2.45141500
C         -10.59223700     -0.27041200     -1.91154300
H         -11.40733100     -0.97228500     -1.72761500
H         -10.86252700      0.46547600     -2.67959400
O          -9.42372900     -0.99094900     -2.32551600
O         -10.27147500      0.41664400     -0.68927500
N           0.29027100     -1.72213600      0.32416900
H           5.10606700      2.96644000     -0.23005500
O           5.45574800     -2.32277100      1.76479200
H           4.99817000     -2.44626500      0.89997200
C           4.44278100     -2.31118900      2.75696500
H           3.84271100     -3.23449100      2.74790500
H           4.93211400     -2.23389100      3.73339200
H           3.75885000     -1.45790000      2.64641400
H           4.90681000      2.37791600     -2.07036300
O           4.46149700      3.23621300     -1.85915400
C           5.28939300      4.26473300     -2.40448200
H           6.32276000      4.18718200     -2.04086700
H           5.29702700      4.23264500     -3.50162300
H           4.87639000      5.22494100     -2.08531400
H           3.06490900     -2.53737400     -0.21540800
O           3.95430900     -2.87003700     -0.48719000
C           4.28459300     -2.21780700     -1.71124900
H           3.61960700     -2.53627900     -2.52580700
H           4.23407300     -1.12672600     -1.61974700
H           5.30900100     -2.49609400     -1.96968100
          74
 Energy =  -2280.61270700 a.u.  #Cluster:    2
C          -0.10715200     -0.34040300     -1.18909200
C           0.00537500      1.83427300     -2.45169800
C          -1.48913200      1.61887900     -2.67076500
C          -2.13066900      0.99030600     -1.43443100
C           0.84699000     -1.14883800     -0.57959100
C           2.08631600     -0.56635600     -0.93496700
H           0.18418600      2.65528800     -1.75056200
H          -1.96277600      2.58243900     -2.87836700
H          -2.00984400      1.64124000     -0.56214000
H           0.68867900     -2.00532900      0.05349500
H           0.53004700      2.04455000     -3.38636200
H          -1.65643300      0.96864900     -3.53627800
H          -3.19078500      0.80845500     -1.59136100
N           1.91315700      0.51843200     -1.71071200
C           3.37859300     -0.97061200     -0.51195400
C           4.46504600     -1.31105100     -0.09801300
C           5.75904900     -1.66281600      0.52095500
C           6.36464100     -2.90627000     -0.14125300
H           5.67491500     -3.74286200     -0.01093000
H           6.52570000     -2.75100200     -1.21139800
H           7.31582900     -3.15001400      0.34019900
O           5.57960300     -1.98250200      1.89287400
C           6.67651100     -0.43890700      0.37982100
S           7.95923500     -0.32314600     -0.80095400
C           7.46716000      1.60403400      0.78400000
C           8.31568700      1.27471300     -0.23161100
H           7.46763800      2.54175100      1.32524000
H           9.11440500      1.86061600     -0.66341700
N           6.54642900      0.63476200      1.11525600
C          -2.26334400     -1.42084400     -0.83149600
N          -3.52245100     -1.16015500     -0.44756900
C          -1.78387100     -2.74110300     -0.91399400
C          -4.29913800     -2.20598000     -0.13952500
C          -2.68375000     -3.73660100     -0.55952400
H          -0.79484800     -2.98260600     -1.27334300
N          -3.93933200     -3.50894700     -0.16061200
H          -2.38028900     -4.78056100     -0.60862500
N          -1.49572100     -0.31572700     -1.16350900
N          -5.59811600     -1.99659700      0.24669400
H          -6.08846600     -2.86528100      0.41528300
C          -6.35869300     -0.82458000      0.38923400
C          -7.74986100     -1.01745600      0.58671400
C          -5.82108400      0.47019200      0.36497300
C          -8.52856200      0.10606900      0.74564800
H          -8.18401100     -2.01153100      0.60849000
C          -6.64569800      1.59949500      0.52744600
H          -4.75997400      0.59718600      0.21962100
C          -7.99506400      1.39295800      0.71456800
H          -6.22339500      2.59824900      0.51098000
C         -10.21891300      1.56487400      0.86587300
H         -10.70898700      1.74305900     -0.09994100
H         -10.86490300      1.84614900      1.69906000
O          -8.99850400      2.31425000      0.93192300
O          -9.88132500      0.17094000      0.97498600
N           0.57446600      0.62449500     -1.87155600
H           5.04173700     -1.25869100      2.29989300
O           3.46388700      2.90692700     -1.55170200
H           2.93154700      2.09322600     -1.69860500
C           4.60883600      2.50301300     -0.81731700
H           5.19355300      1.73341100     -1.34251700
H           5.24764400      3.38121100     -0.68004500
H           4.35317300      2.10655300      0.17518300
H           5.04756100      0.68609000      2.19452400
O           4.33895100      0.32063000      2.77920400
C           4.68760900      0.65632200      4.12241000
H           4.62426700      1.73879600      4.29282700
H           3.97505600      0.15606300      4.78289800
H           5.70086900      0.31712800      4.37590300
H          -0.25398100      1.29903500      1.41127600
O           0.11217300      1.99348900      0.84382600
C           1.47023300      2.20244100      1.23736500
H           1.53784800      2.80615200      2.15452200
H           2.00418200      1.25947400      1.40181800
H           1.96211400      2.73520900      0.42046600
          74
 Energy =  -2280.61256800 a.u.  #Cluster:    3
C           0.11674100      0.67645300     -0.66158200
C          -0.24127800      3.06384100     -1.42003000
C          -1.65735900      2.58886900     -1.73747900
C          -2.13939500      1.57454000     -0.70038700
C           1.22545600     -0.04908600     -0.23519400
C           2.30951800      0.84260100     -0.39144200
H          -0.22525500      3.78007400     -0.59081300
H          -2.32876000      3.45200300     -1.74668000
H          -2.15490800      2.01569600      0.30398800
H           1.28870900     -1.05322900      0.15226600
H           0.22975200      3.53191000     -2.28809400
H          -1.69151400      2.12638300     -2.72973800
H          -3.14059800      1.22030700     -0.93161600
N           1.90575300      2.03501200     -0.86806100
C           3.67034500      0.58888100     -0.08151600
C           4.81896800      0.33834200      0.20653600
C           6.20251600      0.05406600      0.61957400
C           6.43089200      0.52249600      2.07138100
H           6.24283800      1.59853400      2.14820200
H           5.75136400     -0.00031300      2.74884800
H           7.46432500      0.31270400      2.36154500
O           7.14648400      0.66493800     -0.26424800
C           6.46583500     -1.43707200      0.52087500
S           8.03836500     -2.03609600      0.06147500
C           6.15684700     -3.62304900      0.72287300
C           7.46027800     -3.65195300      0.32327800
H           5.54296000     -4.48756200      0.94309200
H           8.09574700     -4.50977400      0.15466600
N           5.60326500     -2.36283300      0.83465000
C          -1.75515100     -0.88656100     -0.73907600
N          -3.05259700     -1.00409700     -0.41910000
C          -0.98906300     -2.00816600     -1.10593600
C          -3.58574600     -2.23123800     -0.45721200
C          -1.65421700     -3.22617900     -1.09507300
H           0.04071200     -1.93722700     -1.42039300
N          -2.94215800     -3.37821400     -0.76969000
H          -1.12154700     -4.13331800     -1.37428100
N          -1.24399200      0.40214600     -0.70877000
N          -4.91271600     -2.40325600     -0.15670500
H          -5.20668600     -3.36465500     -0.26958300
C          -5.92186900     -1.48631000      0.18176200
C          -7.24823700     -1.98485700      0.12979200
C          -5.67886500     -0.16480500      0.58238700
C          -8.26227400     -1.12475700      0.48532900
H          -7.45676000     -3.00270900     -0.18241400
C          -6.73919300      0.69361500      0.92924900
H          -4.66257500      0.19337800      0.62885100
C          -8.02103400      0.19105800      0.87499300
H          -6.54493900      1.71668500      1.23209000
C         -10.20781600     -0.21324200      1.10527800
H         -11.06611200      0.11245600      0.51544400
H         -10.49950400     -0.46572600      2.13281600
O          -9.21966800      0.82530800      1.12732000
O          -9.61438300     -1.36699000      0.48456700
N           0.56952900      1.90942800     -1.03706100
H           7.15546700      1.61699700     -0.07080100
O           3.02577800      4.44810000     -0.04610800
H           2.68481900      3.62613100     -0.48001400
C           3.77260500      4.02888400      1.09488900
H           4.65169600      3.44094700      0.80093700
H           4.10716500      4.92745400      1.61961600
H           3.16704600      3.42332400      1.78277100
H           3.67510200     -2.41125300      0.69857200
O           2.80767400     -2.77915700      0.42056200
C           2.90928200     -3.01980700     -0.97498900
H           1.99786800     -3.53869300     -1.28842300
H           2.99308900     -2.08812000     -1.55339800
H           3.76999700     -3.65759900     -1.22251300
H           1.48559900      5.12642300      0.47942400
O           0.59493400      5.49281300      0.69871300
C           0.37029000      6.56666800     -0.20020700
H           1.14443000      7.34488800     -0.12142400
H           0.32616000      6.23524700     -1.24954200
H          -0.59413800      7.01936900      0.05126100
          74
 Energy =  -2280.61171100 a.u.  #Cluster:    4
C          -0.01978100      0.84830300     -0.77462300
C          -0.32157500      3.19590900     -1.63610600
C          -1.75277200      2.75053600     -1.92647000
C          -2.25107500      1.79946300     -0.83822500
C           1.06300100      0.14510200     -0.25793100
C           2.17188700      1.00357700     -0.47677400
H          -0.30015100      3.90786000     -0.80454200
H          -2.39839900      3.63224800     -1.96962400
H          -2.22183100      2.28236600      0.14496900
H           1.10011700     -0.83023500      0.20019400
H           0.14971900      3.65904500     -2.50562600
H          -1.80599500      2.24701600     -2.89778400
H          -3.26554700      1.46469300     -1.03799700
N           1.80704800      2.15815100     -1.05919200
C           3.52051900      0.73726400     -0.12685700
C           4.65593800      0.47174900      0.19818300
C           6.03865700      0.20595400      0.63315300
C           6.22169600      0.65345700      2.10060300
H           6.02973200      1.72732100      2.17396800
H           5.53043900      0.11611700      2.75527400
H           7.24985700      0.44612200      2.41199900
O           6.97769300      0.85218200     -0.21384700
C           6.31996200     -1.28047800      0.52270700
S           7.87288900     -1.85162000     -0.02903300
C           6.05933300     -3.47292000      0.73198500
C           7.33802000     -3.47890700      0.25856700
H           5.47464900     -4.34892900      0.98446700
H           7.97725300     -4.32580400      0.05297900
N           5.49179600     -2.22224600      0.88064800
C          -1.92356800     -0.67279800     -0.78594900
N          -3.22682900     -0.75300600     -0.47674800
C          -1.17360400     -1.82452700     -1.09076500
C          -3.78108300     -1.97125300     -0.46600000
C          -1.86147700     -3.02794600     -1.03644000
H          -0.13743000     -1.78560500     -1.39011400
N          -3.15649400     -3.14229600     -0.72165800
H          -1.34265100     -3.95615700     -1.26864300
N          -1.38682800      0.60340800     -0.80957300
N          -5.11410700     -2.10606300     -0.17167500
H          -5.42528400     -3.06568500     -0.24745300
C          -6.10688300     -1.15792700      0.12617800
C          -7.44254000     -1.63181400      0.08271400
C          -5.84012500      0.17213700      0.48121700
C          -8.44145200     -0.73999500      0.40093800
H          -7.66900300     -2.65582900     -0.19480200
C          -6.88531700      1.06277100      0.79071700
H          -4.81712500      0.51154700      0.52125000
C          -8.17653800      0.58371900      0.74572900
H          -6.67273600      2.09194900      1.05858300
C         -10.37202900      0.23042900      0.97624600
H         -11.22101100      0.55171300      0.37071900
H         -10.67348200      0.01970100      2.01036900
O          -9.36405200      1.24985600      0.96746800
O          -9.79815600     -0.95552600      0.39947200
N           0.47131500      2.03408200     -1.24994700
H           6.81740500      1.82422200     -0.11991700
O           6.28260700      3.46848500      0.15661100
H           7.04732700      4.06592900      0.16816400
C           5.33718100      3.96343500     -0.80342800
H           5.76498400      3.99182200     -1.81267800
H           4.48998900      3.27670100     -0.79175500
H           4.99184200      4.96619800     -0.52739800
H           3.55263500     -2.22859900      0.81066700
O           2.66170800     -2.56501400      0.56924400
C           2.72086400     -2.88093500     -0.81306700
H           1.77952500     -3.37102200     -1.08156400
H           2.83556000     -1.98530100     -1.44108700
H           3.54483300     -3.57133100     -1.04474200
H           0.30286500      1.72896400      1.49158300
O          -0.10586100      2.56014200      1.78592400
C           0.94760600      3.49553300      2.00928400
H           1.64046500      3.15528900      2.79186200
H           1.52146500      3.69232300      1.09513200
H           0.48188200      4.42703000      2.34262100
          74
 Energy =  -2280.61118600 a.u.  #Cluster:    5
C          -0.83797500      1.60584400     -0.51107900
C          -1.36135900      4.07529500     -0.48634000
C          -2.75189300      3.62953100     -0.93083700
C          -3.14686800      2.32318200     -0.24211500
C           0.32901100      0.86642700     -0.36110600
C           1.35407500      1.84138500     -0.26484700
H          -1.38681500      4.48247600      0.53062100
H          -3.47604600      4.41001700     -0.68161900
H          -3.16612900      2.44476900      0.84826000
H           0.44008300     -0.20314100     -0.30458800
H          -0.94488200      4.83661500     -1.14946600
H          -2.77473900      3.48364800     -2.01614800
H          -4.13065500      1.99039400     -0.56319400
N           0.86561200      3.09139300     -0.33473000
C           2.74220300      1.58882100     -0.09977200
C           3.91278600      1.31836900      0.05246200
C           5.30838900      0.91366800      0.28820800
C           5.61711800      0.95119300      1.79797500
H           5.47704100      1.97520400      2.15242600
H           4.95650100      0.28117500      2.35251100
H           6.65419000      0.65486900      1.97370600
O           6.15097100      1.79054600     -0.44516500
C           5.46060800     -0.49983500     -0.27474900
S           5.96023600     -0.71374800     -1.93038200
C           5.38743900     -2.71709600     -0.46223900
C           5.78773100     -2.42819200     -1.73320800
H           5.21522800     -3.70800000     -0.06155800
H           6.00558900     -3.11295600     -2.54044300
N           5.20932600     -1.61756200      0.35945200
C          -2.62425100      0.01315000     -0.99978900
N          -3.89339600     -0.28432300     -0.67918500
C          -1.82125000     -0.89332100     -1.71621500
C          -4.35912400     -1.47933400     -1.06167700
C          -2.41842800     -2.10128200     -2.04894500
H          -0.81804700     -0.65834200     -2.03762400
N          -3.67433200     -2.43257500     -1.73270300
H          -1.85638100     -2.84359100     -2.61243600
N          -2.18382300      1.26695300     -0.60589600
N          -5.65206900     -1.83068200     -0.76931900
H          -5.89255000     -2.73792400     -1.14677700
C          -6.68470100     -1.14898600     -0.10521800
C          -7.96850700     -1.74506500     -0.19470100
C          -6.50367700      0.03304700      0.62693300
C          -9.00551300     -1.11544800      0.45493100
H          -8.12774300     -2.66017100     -0.75535600
C          -7.58636200      0.65430900      1.27785500
H          -5.51862200      0.46766300      0.68965700
C          -8.82686800      0.06327100      1.17627500
H          -7.43947200      1.56671200      1.84538300
C         -11.01079600     -0.41455300      1.15307100
H         -11.57006200      0.13706900      0.38647500
H         -11.67257900     -0.79769900      1.93143300
O         -10.02585200      0.44469700      1.74196100
O         -10.31785900     -1.51284500      0.53460800
N          -0.46698300      2.92311500     -0.49979400
H           7.08411600      1.49978600     -0.25486800
O           8.60919800      0.78630700      0.11090600
H           8.43308300     -0.08384600      0.54754900
C           9.38464400      1.57411400      1.01494100
H           9.59827800      2.52496900      0.52094500
H           8.84530200      1.77757400      1.94955200
H          10.33401400      1.07982200      1.25445800
H           7.09664800     -1.69010000      1.38104800
O           8.05732400     -1.53657300      1.43544800
C           8.72430700     -2.67678200      0.87811700
H           8.42599900     -2.84964200     -0.16194100
H           9.79460400     -2.46455900      0.91434200
H           8.51830500     -3.57718300      1.46793500
H           4.20557500     -1.74107700      1.98315500
O           3.60035700     -1.70729000      2.75504400
C           2.30886700     -1.40318600      2.24572800
H           2.27694300     -0.42413800      1.74936800
H           1.95286800     -2.16203500      1.53187900
H           1.61548100     -1.38250900      3.09227000
