          61
 Energy =  -2396.54946600 a.u.  #Cluster:    1
C          -2.95134300      0.60211900     -0.33469600
C          -1.58802900      0.39185100     -0.05919900
C          -0.70413600      1.46621100      0.00536700
C          -1.17572500      2.79045600     -0.18754900
C          -2.53967900      2.98956500     -0.42536200
C          -3.42054600      1.91501000     -0.50575400
H          -1.23798300     -0.61211400      0.14741100
H          -2.91561500      3.99628400     -0.56798800
H          -4.47254400      2.08617500     -0.70702400
C           0.69991100      3.97195300     -1.20783700
C          -0.75529000      5.15893800      0.31088100
C           1.83079500      4.91415100     -0.81555100
H           0.17599300      4.36688900     -2.09348400
H           1.10383600      2.98954300     -1.46172800
C           0.42355500      6.05647300      0.67351600
H          -1.32742400      5.63158800     -0.50504800
H          -1.41694400      5.04389700      1.17444200
H           2.49389900      5.09038000     -1.66661900
H           2.41558300      4.46608000      0.00367100
H           0.07657600      7.06488500      0.91367700
H           0.94454200      5.63843300      1.54890400
N          -0.23895400      3.84458700     -0.07546500
O           1.32988900      6.18675100     -0.41766700
N           0.64309300      1.31830000      0.36454500
H           1.04195100      2.12271800      0.84004400
C           1.54727800      0.36216800     -0.00525200
N           2.76048800      0.49424300      0.55577000
C           1.27580000     -0.67506700     -0.92639800
C           3.68920600     -0.41240900      0.21422000
C           2.32067100     -1.53828200     -1.18955200
H           0.32200200     -0.77686600     -1.42333300
N           3.54004400     -1.44294300     -0.62903100
H           2.18665000     -2.35657100     -1.89353400
N           4.90694600     -0.20686700      0.83185800
H           4.92926000      0.59310100      1.45243300
C           6.11367000     -0.88875800      0.76054400
C           6.32864100     -2.03098400     -0.03178400
N           7.06876200     -0.34164000      1.53530400
C           7.59573700     -2.59175200      0.01261300
H           5.53085100     -2.43372200     -0.63667100
C           8.27313600     -0.91947700      1.54362400
C           8.60776800     -2.05139400      0.80351100
H           9.02069100     -0.45153100      2.18034500
H           9.59951000     -2.48383800      0.84340100
Cl          7.92495000     -4.02059700     -0.95608600
C          -3.84653300     -0.50647100     -0.40138100
C          -4.60964400     -1.44739200     -0.45701400
C          -5.54001200     -2.59420200     -0.50985000
C          -4.95890100     -3.79306100      0.25295800
H          -5.67553400     -4.61848300      0.22977200
H          -4.03002300     -4.10712800     -0.23010800
H          -4.74042700     -3.53037200      1.29185200
O          -5.75914200     -3.00723300     -1.85602900
H          -6.56673700     -2.53927100     -2.14684200
C          -6.87791900     -2.14548200      0.07338400
S          -7.16023800     -1.83257600      1.76891300
C          -8.98993600     -1.47531500      0.03045700
C          -8.78716000     -1.36541600      1.37418100
H          -9.91723000     -1.25000700     -0.48195900
H          -9.48117400     -1.05305200      2.14164600
N          -7.90236800     -1.91459000     -0.69745100
          61
 Energy =  -2396.54892500 a.u.  #Cluster:    2
C           3.06614900      1.04340200     -0.59129200
C           1.68687600      0.77906700     -0.66827400
C           0.75706100      1.78447800     -0.41358800
C           1.19382000      3.09493100     -0.09011700
C           2.56800400      3.35266400     -0.04847800
C           3.49781000      2.34537600     -0.28923500
H           1.35203000     -0.20471100     -0.97327900
H           2.91761400      4.35037000      0.19135000
H           4.55976800      2.56024200     -0.23844900
C          -0.53052100      3.97599800      1.39582200
C           0.59269500      5.47542900     -0.12792800
C          -1.74887100      4.88929300      1.34954800
H           0.12057000      4.26564400      2.23677700
H          -0.84545900      2.94166700      1.54990300
C          -0.66554200      6.33733200     -0.14298100
H           1.27718600      5.85580800      0.64890500
H           1.10022500      5.53814700     -1.09504200
H          -2.26428200      4.88759400      2.31360700
H          -2.44529400      4.53420400      0.57315000
H          -0.40507500      7.39136400     -0.26996600
H          -1.31281900      6.02504500     -0.97734000
N           0.20545300      4.08561000      0.12050100
O          -1.37516800      6.23849000      1.08818200
N          -0.62368500      1.59440800     -0.56601800
H          -1.13689700      2.42757600     -0.83912400
C          -1.40157800      0.52206600     -0.22982300
N          -2.69462900      0.63956700     -0.57376600
C          -0.92768600     -0.61926900      0.45652300
C          -3.50316500     -0.38276700     -0.25362000
C          -1.86556300     -1.59622200      0.72454100
H           0.09729100     -0.71714700      0.78347000
N          -3.16221900     -1.51601400      0.37464400
H          -1.57407500     -2.49982000      1.25528600
N          -4.81380400     -0.18503500     -0.64079200
H          -4.98072800      0.69661600     -1.11028600
C          -5.95197600     -0.96793100     -0.50775400
C          -5.97129400     -2.23368100      0.10564600
N          -7.04845100     -0.38840200     -1.03089100
C          -7.19447500     -2.88433600      0.15599900
H          -5.06530600     -2.65820600      0.51010300
C          -8.20300400     -1.05630800     -0.95768400
C          -8.34921000     -2.31359200     -0.37554200
H          -9.06827000     -0.55887100     -1.39026600
H          -9.30779400     -2.81567600     -0.34042700
Cl         -7.28152500     -4.46899300      0.91067500
C           4.00872000      0.00484500     -0.85182200
C           4.80669500     -0.88027500     -1.07630800
C           5.78826600     -1.95483400     -1.33691500
C           6.97222400     -1.41922000     -2.15330800
H           7.70077300     -2.22077000     -2.30266300
H           6.60913700     -1.07489900     -3.12508800
H           7.45427600     -0.58010200     -1.64373800
O           5.19172200     -3.00962700     -2.08438500
H           4.87533100     -3.65565600     -1.42238200
C           6.23650600     -2.51999000      0.00954000
S           7.29927300     -1.69347600      1.12276800
C           6.28760300     -3.96343500      1.69008800
C           7.11477300     -3.02235900      2.22794700
H           6.00692200     -4.89440800      2.16731000
H           7.62317800     -3.03159000      3.18168000
N           5.79318100     -3.66853700      0.43553000
          61
 Energy =  -2396.54885500 a.u.  #Cluster:    3
C          -2.96379800      0.71890900     -0.41363800
C          -1.60519800      0.47809900     -0.13928700
C          -0.70652900      1.53657500     -0.03158500
C          -1.15831600      2.87356200     -0.18215500
C          -2.51764100      3.10120300     -0.42035700
C          -3.41384200      2.04337700     -0.54127100
H          -1.27181100     -0.53758700      0.03454300
H          -2.87783700      4.11772800     -0.53004100
H          -4.46223800      2.23655700     -0.74106500
C           0.73926100      4.05965500     -1.15324900
C          -0.70387800      5.21659100      0.40090400
C           1.88285800      4.97000200     -0.72444800
H           0.22536200      4.49266600     -2.02683300
H           1.12899200      3.08004200     -1.43849100
C           0.48748600      6.08253300      0.79795300
H          -1.26580900      5.72612000     -0.39974500
H          -1.37008200      5.08174800      1.25807800
H           2.55264600      5.16486500     -1.56615100
H           2.45661200      4.48497100      0.08143900
H           0.15524400      7.08740300      1.07140900
H           0.99874200      5.62670200      1.66012100
N          -0.20661100      3.90866300     -0.02957400
O           1.39975000      6.23584700     -0.28525400
N           0.63539200      1.35972500      0.33210600
H           1.04079400      2.14430700      0.83456900
C           1.52678700      0.39357500     -0.04246100
N           2.73188700      0.48985700      0.54270400
C           1.25254000     -0.61771200     -0.99112400
C           3.64918400     -0.42717100      0.19821600
C           2.28538800     -1.49538400     -1.25437900
H           0.30662000     -0.68944200     -1.50796400
N           3.49579000     -1.43614600     -0.67008900
H           2.14873500     -2.29536400     -1.97861000
N           4.85865700     -0.25900200      0.84260200
H           4.88379400      0.52559100      1.48241500
C           6.05241700     -0.96429200      0.78123800
C           6.26178800     -2.09130700     -0.03397100
N           7.00084100     -0.45588300      1.58978300
C           7.51601500     -2.67916100      0.02420900
H           5.46958700     -2.46292700     -0.66554000
C           8.19277400     -1.05866000      1.61025600
C           8.52082500     -2.17917300      0.85010400
H           8.93522600     -0.62180600      2.27444300
H           9.50245700     -2.63300400      0.90113800
Cl          7.83788600     -4.09054000     -0.97211600
C          -3.87496300     -0.37266900     -0.52240900
C          -4.65290900     -1.29910300     -0.60922400
C          -5.59477800     -2.42584600     -0.72078000
C          -4.85564000     -3.76768700     -0.60938600
H          -4.36880800     -3.85686100      0.36414200
H          -5.57497700     -4.58245600     -0.72801000
H          -4.09915600     -3.83453300     -1.39670400
O          -6.32639600     -2.34800800     -1.95331400
H          -5.68458800     -2.16454400     -2.65911300
C          -6.64163300     -2.29701800      0.37252100
S          -8.17541500     -1.51328300      0.04533000
C          -7.58090700     -2.37107200      2.37043900
C          -8.59621400     -1.73768600      1.71365000
H          -7.59008700     -2.64009700      3.42014400
H          -9.55188300     -1.41456500      2.10203600
N          -6.47570800     -2.68255100      1.60453100
          61
 Energy =  -2396.54875800 a.u.  #Cluster:    4
C          -2.94197500      1.00659000     -0.46169000
C          -1.56973200      0.72510000     -0.58784400
C          -0.62048400      1.72455700     -0.38912500
C          -1.03096200      3.04727800     -0.08111800
C          -2.39988100      3.32204000      0.00658700
C          -3.34835300      2.31926700     -0.17152000
H          -1.25684300     -0.26869600     -0.88392900
H          -2.72944700      4.32878100      0.23663600
H          -4.40520600      2.54631600     -0.08222300
C          -0.40467200      5.41911500     -0.19526500
C           0.75632600      3.93924400      1.31994900
C           0.86238300      6.26432300     -0.27524500
H          -1.05561600      5.82533400      0.59703200
H          -0.94622000      5.46701000     -1.14459900
C           1.98268900      4.83611000      1.20944400
H           0.13965100      4.25530700      2.17713600
H           1.06461400      2.90485700      1.48599900
H           0.60975900      7.31846100     -0.41626300
H           1.47511800      5.92590000     -1.12536900
H           2.53230300      4.84950500      2.15432100
H           2.64704500      4.45556300      0.41709000
N          -0.02504300      4.03027800      0.07031000
O           1.61522200      6.18367800      0.93131200
N           0.75158000      1.51289000     -0.58622700
H           1.26469700      2.33252100     -0.89766100
C           1.53037900      0.44916100     -0.22432600
N           2.81677500      0.54524400     -0.59806100
C           1.06348500     -0.66208700      0.51401100
C           3.62602900     -0.46877100     -0.25380900
C           2.00124700     -1.63345300      0.80200700
H           0.04406500     -0.74176900      0.86262400
N           3.29134700     -1.57445600      0.42481200
H           1.71527900     -2.51419300      1.37267100
N           4.92986600     -0.29433200     -0.67356500
H           5.09218000      0.56687900     -1.18108500
C           6.06885800     -1.07265700     -0.52156300
C           6.09550600     -2.30943100      0.14805900
N           7.15847600     -0.51906700     -1.08553700
C           7.31887100     -2.95862200      0.21153600
H           5.19492700     -2.71410400      0.58372700
C           8.31342800     -1.18456800     -0.99784300
C           8.46667000     -2.41414800     -0.36099300
H           9.17301800     -0.70854600     -1.46448300
H           9.42533300     -2.91527600     -0.31589700
Cl          7.41519100     -4.50721300      1.03669600
C          -3.90386400     -0.02701700     -0.66413900
C          -4.71606900     -0.90987400     -0.83860400
C          -5.71542500     -1.96005700     -1.07575600
C          -5.03885100     -3.29580200     -1.42160800
H          -4.40286000     -3.16665900     -2.30122200
H          -4.43328100     -3.63510100     -0.57859600
H          -5.80845800     -4.04284300     -1.63629800
O          -6.54722200     -1.63538200     -2.19846700
H          -6.81599400     -0.70523500     -2.10727500
C          -6.58799200     -2.13634600      0.16265100
S          -8.32783200     -2.26507500     -0.01158200
C          -7.19183300     -2.47069300      2.26043600
C          -8.43820400     -2.50140800      1.70431300
H          -6.97832400     -2.59098700      3.31617500
H          -9.39202900     -2.64040100      2.19363400
N          -6.14815500     -2.26373800      1.38045300
          61
 Energy =  -2396.54857700 a.u.  #Cluster:    5
C          -3.42769700      1.33080300      0.18141100
C          -2.06415500      1.02462000      0.34301500
C          -1.09859700      2.02443200      0.25788200
C          -1.48506000      3.37055300      0.02967200
C          -2.84638300      3.66819400     -0.08805400
C          -3.81082900      2.66627300     -0.02189600
H          -1.77470100      0.00733300      0.57558100
H          -3.15699600      4.69322300     -0.25553700
H          -4.86109500      2.91190100     -0.13622100
C           0.34219900      4.32858400     -1.26265800
C          -0.82723400      5.71931000      0.32850600
C           1.57765200      5.19911500     -1.07216900
H          -0.25489800      4.70906500     -2.10746600
H           0.64089800      3.30317200     -1.49121500
C           0.44972200      6.53855600      0.48799300
H          -1.45688100      6.18793200     -0.44635500
H          -1.38667900      5.71051500      1.26861300
H           2.14298900      5.26938300     -2.00520100
H           2.22418000      4.75646900     -0.29757900
H           0.20890800      7.58418700      0.69678300
H           1.04230800      6.13355900      1.32309800
N          -0.46065100      4.34616600     -0.02351900
O           1.22239200      6.52950700     -0.70855400
N           0.26269900      1.78744100      0.49130100
H           0.76940000      2.58336500      0.86818100
C           1.04309000      0.72449600      0.13179200
N           2.30730000      0.78348500      0.58170000
C           0.60361900     -0.34873900     -0.67658400
C           3.11977500     -0.23012600      0.24455200
C           1.54183700     -1.32443100     -0.94843000
H          -0.39419300     -0.39708100     -1.08772300
N           2.80836500     -1.30309100     -0.49509900
H           1.27617600     -2.17709000     -1.56935600
N           4.39928200     -0.09465000      0.74559400
H           4.54449200      0.74361500      1.29500400
C           5.53392200     -0.88502500      0.62759700
C           5.58092600     -2.09595600     -0.08660500
N           6.59760900     -0.37077000      1.27252600
C           6.79674500     -2.76192400     -0.10668500
H           4.70075900     -2.46914600     -0.58732300
C           7.74624500     -1.05099700      1.22382700
C           7.91798200     -2.25794700      0.54947900
H           8.58470300     -0.60687900      1.75579700
H           8.87063100     -2.77227900      0.53856400
Cl          6.91776700     -4.27977500     -0.98413900
C          -4.39784900      0.28699000      0.24633600
C          -5.20299300     -0.61856000      0.29520500
C          -6.16351600     -1.74100900      0.32760100
C          -7.20303400     -1.59541900     -0.79285300
H          -7.77804200     -0.68020200     -0.62954500
H          -6.72027600     -1.53440800     -1.77224400
H          -7.87855000     -2.45497600     -0.77323700
O          -6.86867200     -1.77405200      1.56499900
H          -6.37158700     -2.39290500      2.13561600
C          -5.36656300     -3.03729700      0.19738400
S          -4.55659300     -3.55342300     -1.26202700
C          -4.40227200     -4.90778400      0.89195300
C          -3.96012200     -4.93832800     -0.39733000
H          -4.18004100     -5.65243800      1.64646400
H          -3.34023300     -5.67769000     -0.88444200
N          -5.19489700     -3.82595900      1.21968900
          61
 Energy =  -2396.54856900 a.u.  #Cluster:    6
C           3.12168300      1.15595000      0.56730400
C           1.74962500      0.86956800      0.68452200
C           0.79581100      1.85027900      0.42365500
C           1.20021900      3.16032800      0.05994200
C           2.56823200      3.44207300     -0.01917700
C           3.52172600      2.45725300      0.22170600
H           1.43922300     -0.11183000      1.02187700
H           2.89343000      4.43970800     -0.29144700
H           4.57802500      2.68933700      0.13885300
C           0.55408100      5.52954000      0.05239500
C          -0.56949000      3.97186000     -1.41130700
C          -0.72022800      6.36754700      0.07128100
H           1.21560000      5.90344900     -0.74712900
H           1.07917800      5.62583700      1.00729900
C          -1.80402800      4.86297700     -1.36379900
H           0.05968700      4.25233700     -2.27185400
H          -0.86734000      2.92837900     -1.53395000
H          -0.47776200      7.42911200      0.16734800
H          -1.34518000      6.06400200      0.92565700
H          -2.33718000      4.82761400     -2.31750700
H          -2.47906100      4.51447500     -0.56584100
N           0.18897200      4.12678400     -0.15407900
O          -1.45139400      6.22497800     -1.14283600
N          -0.57782700      1.63431300      0.60769700
H          -1.10375300      2.46178500      0.87353500
C          -1.34101400      0.55051300      0.27359800
N          -2.63585100      0.65111300      0.61587100
C          -0.85021200     -0.58647300     -0.40807200
C          -3.42991600     -0.38304500      0.29721500
C          -1.77426600     -1.57675100     -0.67493300
H           0.17696000     -0.67183200     -0.73166800
N          -3.07257700     -1.51309000     -0.32765000
H          -1.46962900     -2.47794900     -1.20238100
N          -4.74376500     -0.20213800      0.68166600
H          -4.92340900      0.67825300      1.14883900
C          -5.87304100     -0.99628900      0.53948200
C          -5.87539700     -2.26083500     -0.07666200
N          -6.97885000     -0.42890900      1.05623200
C          -7.09174200     -2.92331500     -0.13746000
H          -4.96240100     -2.67551000     -0.47555700
C          -8.12620200     -1.10805100      0.97327900
C          -8.25582300     -2.36524600      0.38706800
H          -8.99938500     -0.62021800      1.40084500
H          -9.20915100     -2.87659500      0.34375000
Cl         -7.15784100     -4.50681100     -0.89668100
C           4.08723200      0.13963500      0.83062900
C           4.90597600     -0.72569600      1.05762200
C           5.89621500     -1.79124800      1.32056100
C           5.29382700     -2.87303900      2.22702200
H           4.38706100     -3.29589200      1.78526800
H           6.02879400     -3.66800100      2.37952600
H           5.03672800     -2.42819700      3.19175800
O           7.04167900     -1.26365100      1.98171600
H           7.67674700     -1.04175100      1.27246800
C           6.34298900     -2.36126400     -0.02410100
S           5.36224300     -3.39919400     -1.03089200
C           7.67830700     -2.63388900     -1.77144000
C           6.63748100     -3.39643500     -2.21207100
H           8.60226300     -2.46639000     -2.31133400
H           6.54710500     -3.95256100     -3.13442900
N           7.50079700     -2.04963800     -0.53354700
          61
 Energy =  -2396.54821900 a.u.  #Cluster:    7
C           3.26629700      1.52604800      0.02812200
C           1.92598500      1.13580200      0.20339100
C           0.90549700      2.08329100      0.18646600
C           1.21214800      3.45758800      0.00818500
C           2.55158100      3.83630900     -0.12550800
C           3.57105500      2.88849400     -0.12200200
H           1.69927200      0.09474500      0.39698600
H           2.80035600      4.88344600     -0.25459900
H           4.60350600      3.19719300     -0.24509900
C           0.43546100      5.75293800      0.41785000
C          -0.69808500      4.36242400     -1.19949200
C          -0.88022000      6.49184200      0.64232100
H           1.01747400      6.28540500     -0.35304100
H           1.01964800      5.73857600      1.34269800
C          -1.97470200      5.15225500     -0.94190300
H          -0.14604700      4.81051300     -2.04166000
H          -0.94428900      3.33157200     -1.46327900
H          -0.69220600      7.54055500      0.88676100
H          -1.42561400      6.02185200      1.47547800
H          -2.56910700      5.22694800     -1.85631100
H          -2.57300900      4.64289200     -0.16957400
N           0.13533700      4.37602300      0.01948900
O          -1.68432600      6.48540500     -0.53328000
N          -0.43435700      1.76446700      0.44395100
H          -0.97074200      2.51801200      0.86446100
C          -1.17027400      0.67713600      0.06403600
N          -2.42393700      0.65823100      0.54583500
C          -0.70060700     -0.34377200     -0.79334400
C          -3.19569500     -0.38057100      0.19048800
C          -1.59829800     -1.35319800     -1.07945300
H           0.28765600     -0.32950700     -1.22943600
N          -2.85259200     -1.40952300     -0.59627500
H          -1.30813700     -2.16896100     -1.73783400
N          -4.46680000     -0.32533200      0.72684900
H          -4.63690500      0.48409000      1.31130400
C          -5.56547300     -1.16466000      0.60678600
C          -5.57458800     -2.34808000     -0.15350900
N          -6.63421700     -0.72754500      1.29850100
C          -6.75767100     -3.07070700     -0.16880400
H          -4.69169800     -2.65880300     -0.69080900
C          -7.75036700     -1.46006400      1.25227900
C          -7.88307600     -2.64715300      0.53529700
H          -8.59400100     -1.07769800      1.82264300
H          -8.81013200     -3.20631000      0.52816400
Cl         -6.83121200     -4.55788100     -1.10222800
C           4.29758600      0.54079300      0.03329700
C           5.16299600     -0.30796900      0.03823400
C           6.21152100     -1.33659900      0.01857300
C           7.29651500     -1.04534700      1.06782900
H           7.73055200     -0.05962100      0.88092900
H           6.86174100     -1.06976600      2.06923400
H           8.07902100     -1.80633500      0.99600000
O           6.88695500     -1.36236200     -1.24668300
H           6.20835000     -1.34157100     -1.94301900
C           5.59323500     -2.70398600      0.28873900
S           6.08861000     -4.08460800     -0.67202300
C           4.43203300     -4.31747400      1.25071600
C           5.05168900     -5.07870100      0.30205600
H           3.72973400     -4.69061800      1.98703900
H           4.95512500     -6.13980800      0.11974800
N           4.74427800     -2.97250200      1.23726100
          61
 Energy =  -2396.54785300 a.u.  #Cluster:    8
C           2.98228500      0.69679500     -0.47534200
C           1.62841800      0.45749600     -0.17848200
C           0.73407900      1.51761100     -0.04939400
C           1.18631600      2.85428400     -0.19579900
C           2.54157900      3.08039600     -0.45538000
C           3.43285700      2.02114900     -0.60142000
H           1.29489500     -0.55843100     -0.00634600
H           2.90275700      4.09693700     -0.56249100
H           4.47800400      2.21373400     -0.81847000
C           0.74245500      5.19101100      0.42127700
C          -0.71296000      4.05733000     -1.13819400
C          -0.44307700      6.05771900      0.83377400
H           1.30224900      5.70738300     -0.37659700
H           1.41284700      5.04376800      1.27319300
C          -1.85058000      4.96784500     -0.69411200
H          -0.20181800      4.49701200     -2.01018600
H          -1.10852700      3.08227800     -1.43142500
H          -0.10529300      7.05818800      1.11649600
H          -0.95225900      5.59477100      1.69340800
H          -2.52372500      5.17498200     -1.53019900
H          -2.42239500      4.47637500      0.10928600
N           0.23731200      3.89003600     -0.02080100
O          -1.35980200      6.22670500     -0.24335300
N          -0.60336400      1.34092900      0.33122000
H          -1.00075700      2.12601800      0.83942300
C          -1.50428300      0.38512200     -0.04710500
N          -2.70493100      0.48429500      0.54693100
C          -1.24361000     -0.61917500     -1.00703500
C          -3.63091900     -0.42291300      0.19980500
C          -2.28450900     -1.48666600     -1.27204600
H          -0.30143500     -0.69319200     -1.53031700
N          -3.49072800     -1.42432700     -0.67933200
H          -2.15833800     -2.28052800     -2.00485800
N          -4.83490600     -0.25256400      0.85410600
H          -4.84990400      0.52554300      1.50209400
C          -6.03374700     -0.94921300      0.79450700
C          -6.25694000     -2.06596100     -0.03115500
N          -6.97257600     -0.44329600      1.61576600
C          -7.51458200     -2.64607800      0.03035800
H          -5.47201300     -2.43596600     -0.67268000
C          -8.16832100     -1.03839100      1.63893500
C          -8.50968600     -2.14840600      0.86933000
H          -8.90274400     -0.60386000      2.31350600
H          -9.49391000     -2.59627800      0.92303500
Cl         -7.85362400     -4.04435900     -0.97864800
C           3.88991300     -0.39569100     -0.60955400
C           4.66213400     -1.32414900     -0.71949600
C           5.62341100     -2.44077000     -0.84291500
C           6.32372200     -2.40485700     -2.20870900
H           6.82869200     -1.44774700     -2.36699100
H           7.05645400     -3.21485300     -2.26022200
H           5.57802400     -2.54064800     -2.99630300
O           4.95615500     -3.69317300     -0.73261700
H           5.03037900     -3.94989700      0.20789500
C           6.62264900     -2.32924900      0.30722200
S           7.85878500     -1.10057300      0.42511300
C           7.53324300     -2.83755000      2.26246600
C           8.32414700     -1.76865300      1.96107300
H           7.61147600     -3.43922900      3.15972000
H           9.13917300     -1.34566400      2.53116100
N           6.57125300     -3.14506000      1.32142100
          61
 Energy =  -2396.54772600 a.u.  #Cluster:    9
C          -3.29687800      1.12154800      0.41666100
C          -2.20495700      0.33541000      0.01111100
C          -0.96446000      0.90432400     -0.25804800
C          -0.78276300      2.31241300     -0.16732200
C          -1.87203700      3.08137100      0.28168500
C          -3.10206600      2.50568600      0.56944200
H          -2.31445100     -0.74129300     -0.06668000
H          -1.76222000      4.15574400      0.37017800
H          -3.92841100      3.12927600      0.89432200
C           1.00157800      2.72316600     -1.81590700
C           0.76811800      4.20333200      0.08730300
C           2.50277000      2.98521800     -1.79707000
H           0.51408000      3.43424200     -2.50326000
H           0.80615900      1.71313700     -2.17507800
C           2.28048400      4.40823200      0.04883700
H           0.27438900      5.01069200     -0.48028500
H           0.42437200      4.25228300      1.12442400
H           2.90526800      2.96130000     -2.81325800
H           3.00710500      2.21367000     -1.19589700
H           2.53566000      5.41626700      0.38661000
H           2.76185500      3.67345500      0.71197500
N           0.45842800      2.88593800     -0.46017300
O           2.79237900      4.27876400     -1.27330900
N           0.10284900      0.05137200     -0.63321600
H          -0.02306300     -0.57167400     -1.42182200
C           1.32741400     -0.01691100     -0.03188700
N           2.24974700     -0.74362000     -0.67963500
C           1.62111800      0.62313200      1.19384200
C           3.46613500     -0.81976800     -0.11265100
C           2.90881800      0.47100000      1.66059900
H           0.87926800      1.19464400      1.73302400
N           3.86273300     -0.23944800      1.02539900
H           3.21176500      0.93792000      2.59506700
N           4.35721400     -1.59002500     -0.83601200
H           3.97044400     -1.98985000     -1.68214600
C           5.69019000     -1.91083400     -0.62737500
C           6.44587000     -1.46242400      0.47147900
N           6.19562700     -2.70239100     -1.59207800
C           7.76783400     -1.87509200      0.52996800
H           5.99584300     -0.82856100      1.22006500
C           7.47503700     -3.07257700     -1.48958700
C           8.32313100     -2.69447800     -0.45087900
H           7.85022900     -3.71183000     -2.28578500
H           9.35464200     -3.02095400     -0.41180000
Cl          8.76230200     -1.34637300      1.87946900
C          -4.55951100      0.52246000      0.69427800
C          -5.63581600      0.01389200      0.92846800