          56
 Energy =  -1933.59443000 a.u.  #Cluster:    1
C           0.61935200      1.23791200     -0.39613200
C           0.21164300      3.65590300     -1.00208500
C          -1.17175200      3.16055400     -1.41594300
C          -1.66308400      2.07138700     -0.46255300
C           1.73859300      0.52236900      0.01021300
C           2.80071200      1.45918900     -0.05699800
H           0.14825600      4.30136000     -0.11902600
H          -1.87097100      4.00124800     -1.40704000
H          -1.73251100      2.45086000      0.56463700
H           1.79407000     -0.50472600      0.32909300
H           0.70163400      4.21610700     -1.80130800
H          -1.14258300      2.75820400     -2.43425200
H          -2.64315800      1.70387200     -0.75519700
N           2.37470100      2.67019400     -0.45910000
C           4.16740500      1.22301500      0.24775500
C           5.32769600      0.99075100      0.51044900
C           6.73842200      0.73033300      0.84401200
C           7.63729100      1.86396300      0.32724900
H           8.67030300      1.66101900      0.62233200
H           7.58062400      1.93049200     -0.76136100
H           7.31586000      2.81449100      0.76302300
O           6.89660100      0.55910800      2.26007800
H           6.40934900      1.27799000      2.69523000
C           7.14788700     -0.59962100      0.23480800
S           7.10310100     -2.06643200      1.19335200
C           7.75001500     -2.09837000     -1.27158800
C           7.59144400     -2.95089400     -0.21724200
H           8.05843100     -2.39075500     -2.26845200
H           7.74731900     -4.02010900     -0.18571000
N           7.49451200     -0.76786700     -1.00830700
C          -1.20670100     -0.36641100     -0.64791800
N          -2.51039000     -0.53945800     -0.37988900
C          -0.40134200     -1.43938900     -1.07265700
C          -3.01014600     -1.77199300     -0.52752400
C          -1.03597000     -2.66932200     -1.17849400
H           0.63524800     -1.31972100     -1.34876200
N          -2.32875700     -2.87608400     -0.90720200
H          -0.47303700     -3.53931500     -1.51111400
N          -0.73242700      0.92808800     -0.50514200
N          -4.34009200     -1.99898100     -0.28083000
H          -4.60402900     -2.95642300     -0.47334800
C          -5.38153600     -1.13871700      0.10435300
C          -6.69211900     -1.66664400     -0.01745500
C          -5.18498400      0.15586100      0.60566800
C          -7.73801500     -0.85965800      0.36884300
H          -6.86462800     -2.66578400     -0.40356000
C          -6.27667500      0.95828700      0.98750000
H          -4.18064100      0.53807200      0.69847800
C          -7.54270800      0.42987400      0.85910100
H          -6.11777000      1.95784900      1.37702300
C          -9.74383200      0.08087400      0.67607300
H         -10.17972800      0.49443500     -0.24241700
H         -10.50772900     -0.09826400      1.43442600
O          -8.75978300      0.98674000      1.19239400
O          -9.07899300     -1.15703200      0.36871400
N           1.05015400      2.50782100     -0.67273200
          56
 Energy =  -1933.59355500 a.u.  #Cluster:    2
C          -0.68326900      1.41376600     -0.43272000
C          -0.28162100      3.89252300     -0.16959700
C           1.13789700      3.55480300     -0.61813200
C           1.58180800      2.21000900     -0.04261900
C          -1.81550800      0.61045400     -0.38027400
C          -2.88969300      1.52229200     -0.22171100
H          -0.72154900      4.69039200     -0.77178600
H           1.18983600      3.51040400     -1.71128100
H           2.58699500      1.95565000     -0.36875400
H          -1.87352900     -0.46387900     -0.42423400
H          -0.29643800      4.20647800      0.88008100
H           1.81798000      4.34195000     -0.28109500
H           1.57294600      2.22960900      1.05449500
N          -2.45990900      2.79540900     -0.16343500
C          -4.27057600      1.20207800     -0.12935000
C          -5.44040700      0.89347300     -0.05641500
C          -6.86547900      0.51247400      0.03851900
C          -7.59756100      1.40651800      1.04851300
H          -7.12672000      1.35415500      2.03415800
H          -7.56314500      2.44204800      0.70031200
H          -8.63989200      1.08563100      1.12579200
O          -7.51564600      0.66583700     -1.21966200
H          -7.44754700     -0.20459600     -1.65928900
C          -6.92910500     -0.96188700      0.43090500
S          -6.56644900     -1.57639900      2.02541600
C          -7.17286800     -3.14026100      0.10613600
C          -6.83890300     -3.18521700      1.42733300
H          -7.39874700     -4.00146300     -0.51073300
H          -6.74657600     -4.04584400      2.07461800
N          -7.21820600     -1.87758700     -0.44948200
C           1.18848700     -0.03662100     -1.03371000
N           2.46683100     -0.30139400     -0.72058000
C           0.44256700     -0.90663500     -1.85023500
C           2.99824400     -1.42778900     -1.21057800
C           1.10487800     -2.04486500     -2.28856100
H          -0.56715700     -0.69144200     -2.16502700
N           2.37192300     -2.34301600     -1.98388900
H           0.58878700     -2.75496500     -2.93185500
N           0.67950000      1.14854300     -0.52651300
N           4.30397600     -1.74162400     -0.93219700
H           4.59395000     -2.59488200     -1.39183000
C           5.29302500     -1.07942900     -0.18724000
C           6.60434000     -1.60690600     -0.30512800
C           5.04615000      0.02048700      0.64651500
C           7.60073200     -0.99425300      0.41989800
H           6.81458800     -2.45866400     -0.94348300
C           6.08849500      0.62659900      1.37314500
H           4.04112200      0.40278400      0.72937800
C           7.35648900      0.10360100      1.24248500
H           5.89049100      1.47514600      2.01883000
C           9.56028200     -0.27290000      1.21990700
H          10.22562900     -0.69702500      1.97362600
H          10.10679200      0.37117900      0.51906600
O           8.52754700      0.48445200      1.86427300
O           8.92860100     -1.33850300      0.48898700
N          -1.11826800      2.70560500     -0.30803900
          56
 Energy =  -1933.59349300 a.u.  #Cluster:    3
C          -0.60043800      1.41967600     -0.40357300
C          -0.18577400      3.90534700     -0.24560700
C           1.22137800      3.54577800     -0.71582500
C           1.67581300      2.22207000     -0.10083100
C          -1.73295700      0.62291800     -0.29090900
C          -2.79991600      1.54432800     -0.14050600
H          -0.63827500      4.68158500     -0.86641100
H           1.24646100      3.46040100     -1.80749300
H           2.67180600      1.95162100     -0.44198300
H          -1.79504100     -0.45212400     -0.29107100
H          -0.17401600      4.25818600      0.79162100
H           1.91147100      4.34267600     -0.42529000
H           1.69454400      2.28339100      0.99457400
N          -2.36581400      2.81737400     -0.14363300
C          -4.17863800      1.23419600      0.00074200
C          -5.34662500      0.93619100      0.12309900
C          -6.76581100      0.57385700      0.23717800
C          -7.49557900      1.49245700      1.22970000
H          -7.39520300      2.53240500      0.90831400
H          -8.55486300      1.22093800      1.25592800
H          -7.06906300      1.37458100      2.22797100
O          -7.44140900      0.73235700     -1.01815800
H          -6.87731300      0.34358600     -1.70839700
C          -6.88792800     -0.87535600      0.69642300
S          -8.00264200     -1.95375300     -0.12069300
C          -6.63463700     -2.71572100      1.89015800
C          -7.55850100     -3.19582800      1.00714800
H          -6.18959800     -3.28627600      2.69702100
H          -7.98976400     -4.18560400      0.95377200
N          -6.25953800     -1.39955000      1.70786300
C           1.25124300     -0.05949800     -0.99518100
N           2.53536700     -0.31849300     -0.70188800
C           0.48291200     -0.95540500     -1.76110400
C           3.05040600     -1.46541400     -1.16101700
C           1.13031000     -2.11216000     -2.17250600
H          -0.53310600     -0.74691700     -2.05975200
N           2.40271300     -2.40508000     -1.88596200
H           0.59671900     -2.84287700     -2.77727400
N           0.75859000      1.14640000     -0.52134600
N           4.36031700     -1.77603700     -0.90001100
H           4.63617300     -2.64692900     -1.33450400
C           5.36721000     -1.09603900     -0.19604100
C           6.67052700     -1.64326800     -0.31155300
C           5.14376700      0.03510900      0.60180700
C           7.68215500     -1.02152900      0.38403200
H           6.86335600     -2.51668200     -0.92569900
C           6.20222000      0.65266300      1.29485900
H           4.14353000      0.42917800      0.68775100
C           7.46102100      0.10606000      1.17218500
H           6.02391300      1.53032200      1.90647600
C           9.59778600     -0.50622700      1.41642500
H           9.78276200     -1.10316300      2.31869700
H          10.51987900     -0.06551600      1.03394000
O           8.65622900      0.53380900      1.71218100
O           9.01652200     -1.34616900      0.40383500
N          -1.02913500      2.71710900     -0.31853500
          56
 Energy =  -1933.59348500 a.u.  #Cluster:    4
C          -0.60680000     -0.23275900     -0.85333500
C          -0.56210800     -2.46292200     -2.03860100
C           0.92279800     -2.16180400     -2.22628400
C           1.48919600     -1.45314400     -0.99580100
C          -1.62203600      0.56556800     -0.34183600
C          -2.81744400     -0.10198600     -0.71038900
H          -0.70709500     -3.30409600     -1.35158200
H           1.46069400     -3.09917400     -2.39313100
H           1.37624800     -2.07466100     -0.09877500
H          -1.53221300      1.47473000      0.22835700
H          -1.05301100     -2.70474500     -2.98378700
H           1.07334500     -1.52645000     -3.10566900
H           2.54455100     -1.22595600     -1.12109100
N          -2.56702800     -1.23789700     -1.38600200
C          -4.14726500      0.31507200     -0.43595700
C          -5.27285200      0.69210200     -0.19109900
C          -6.64400300      1.15306200      0.11271400
C          -6.61303500      2.25366000      1.18261600
H          -6.11918500      1.90399600      2.09358300
H          -6.06149500      3.11394500      0.79469900
H          -7.63685300      2.55676700      1.41766200
O          -7.26268800      1.69911100     -1.04836500
H          -7.76793300      0.96389700     -1.44838700
C          -7.46265600     -0.05383400      0.56522200
S          -7.27050400     -0.85601000      2.10509900
C          -8.93821100     -1.69551900      0.36964200
C          -8.49060400     -1.99561200      1.62202300
H          -9.70113000     -2.24389800     -0.16925600
H          -8.80130000     -2.79492700      2.27986700
N          -8.34824200     -0.59637100     -0.22118400
C           1.48701400      1.00308300     -0.60151300
N           2.77346700      0.85713500     -0.24681900
C           0.92131600      2.27933700     -0.78038300
C           3.49172600      1.97161600     -0.06685400
C           1.76705000      3.35561800     -0.55147600
H          -0.09244700      2.42799000     -1.11946500
N           3.04841000      3.24303400     -0.18638400
H           1.39467100      4.37022500     -0.67937100
N           0.78251200     -0.17358200     -0.80024200
N           4.81648700      1.87697500      0.27622200
H           5.26079300      2.78426500      0.32864600
C           5.65856800      0.76761800      0.45871800
C           7.04852100      1.04723000      0.48182700
C           5.19825000     -0.54460100      0.63746100
C           7.90406000     -0.01296100      0.67764100
H           7.42352500      2.05626500      0.34612100
C           6.09972300     -1.60841200      0.83016600
H           4.13692400     -0.73690600      0.62518500
C           7.44679700     -1.31852000      0.84475600
H           5.73748200     -2.62105600      0.96955300
C           9.68014500     -1.36783000      0.76623600
H          10.07335100     -1.63040400     -0.22434200
H          10.42702800     -1.52328700      1.54629400
O           8.51987700     -2.16094800      1.04913800
O           9.27478100      0.01215200      0.76352400
N          -1.21882700     -1.28890000     -1.47331100
          56
 Energy =  -1933.59294100 a.u.  #Cluster:    5
C          -0.58583000      0.54289700     -0.08726500
C          -0.45116500      2.85972500     -0.96198500
C           0.78576800      2.93097300     -0.06738800
C           1.62775800      1.66222200     -0.19557200
C          -1.59550800     -0.26430400      0.42071600
C          -2.78085900      0.49151900      0.22736200
H          -0.17605100      2.76931400     -2.01909200
H           1.40885200      3.78602200     -0.34344600
H           2.18922400      1.67171800     -1.13481800
H          -1.50753600     -1.23151400      0.88679700
H          -1.10723700      3.72185000     -0.83952100
H           0.46176200      3.07516400      0.96890300
H           2.35272900      1.60393000      0.61908500
N          -2.52577600      1.68815700     -0.33680200
C          -4.10451400      0.11020100      0.57113000
C          -5.22843700     -0.23408100      0.86711600
C          -6.58895400     -0.64968100      1.24853400
C          -6.61402000     -2.13700900      1.63286300
H          -6.32332800     -2.75673600      0.78192600
H          -5.92061200     -2.31367300      2.46033100
H          -7.62660200     -2.40637700      1.94508400
O          -7.07965800      0.16302000      2.32487800
H          -6.37254000      0.22356300      2.98807800
C          -7.52915900     -0.38011900      0.08616900
S          -8.47328100      1.09549400      0.03151900
C          -8.54939800     -0.61193400     -1.85894900
C          -9.08460700      0.59539300     -1.51329500
H          -8.77029700     -1.15321500     -2.77138600
H          -9.79955600      1.19646400     -2.05743400
N          -7.66714400     -1.15751500     -0.94852700
C           1.44253100     -0.78617100     -0.33662300
N           2.78155200     -0.73609400     -0.24527500
C           0.77403400     -1.99580300     -0.60643400
C           3.45009400     -1.88636700     -0.39563500
C           1.58055700     -3.11647100     -0.73995900
H          -0.29440600     -2.05861800     -0.74223800
N           2.91342000     -3.10420700     -0.62976800
H           1.12852400     -4.08313300     -0.95376700
N           0.79825700      0.42938200     -0.17821500
N           4.81936300     -1.89519500     -0.31016900
H           5.19711100     -2.82773000     -0.41584600
C           5.75876000     -0.87460900     -0.09529000
C           7.10681400     -1.29906500      0.02697700
C           5.43801100      0.48801300     -0.01701000
C           8.06170900     -0.32721300      0.22048000
H           7.37587800     -2.34864700     -0.02844100
C           6.43822200      1.45714100      0.18796100
H           4.40871800      0.79140200     -0.12020300
C           7.74192200      1.02659100      0.30212400
H           6.18216700      2.50901900      0.25282100
C           9.96792600      0.83218600      0.36528700
H          10.67971800      0.94448600      1.18462400
H          10.44611000      1.00215900     -0.60798900
O           8.88752700      1.75829500      0.53866500
O           9.41398500     -0.49482500      0.39490200
N          -1.19180200      1.68126100     -0.53884600
          56
 Energy =  -1933.59290800 a.u.  #Cluster:    6
C          -0.60332300      0.48835100     -0.08170300
C          -0.49964700      2.82632400     -0.90146900
C           0.73463000      2.89421400     -0.00293800
C           1.59470500      1.64078200     -0.15891600
C          -1.60218500     -0.34465300      0.40558500
C          -2.79794500      0.39910200      0.22975900
H          -0.22120900      2.76471200     -1.95982800
H           1.34612500      3.76419200     -0.25755100
H           2.15806200      1.68029600     -1.09625400
H          -1.50109100     -1.32121000      0.84902300
H          -1.16782000      3.67623300     -0.76028700
H           0.40670300      3.00933500      1.03573400
H           2.31870900      1.57356600      0.65594000
N          -2.55901400      1.61199700     -0.30574100
C          -4.11643400     -0.01014800      0.56306300
C          -5.23365400     -0.37880600      0.85474300
C          -6.59783800     -0.82997100      1.20153200
C          -6.71897100     -2.35093100      1.03387200
H          -6.46449600     -2.65624500      0.01508700
H          -6.03189900     -2.84283500      1.72721800
H          -7.74326600     -2.65872000      1.26077500
O          -6.90374800     -0.52337700      2.55855000
H          -7.34366300      0.34937500      2.53918200
C          -7.58406200     -0.07924900      0.30960500
S          -7.81012200     -0.39083400     -1.39435900
C          -9.08702800      1.46609800     -0.20328300
C          -8.96320900      0.90871400     -1.44146500
H          -9.74176500      2.29173700      0.04741000
H          -9.47358000      1.17099300     -2.35741200
N          -8.30018800      0.90185000      0.78036600
C           1.44397500     -0.80563800     -0.35924500
N           2.78211300     -0.73956800     -0.26373800
C           0.79278100     -2.01746400     -0.66011500
C           3.46660100     -1.87659800     -0.44046100
C           1.61487000     -3.12323500     -0.81968600
H          -0.27456000     -2.09151400     -0.79900000
N           2.94726900     -3.09547600     -0.70624100
H           1.17660800     -4.09041300     -1.05841000
N           0.78260200      0.39642600     -0.17273900
N           4.83567400     -1.86898200     -0.35130500
H           5.22641100     -2.79336700     -0.47900600
C           5.76052400     -0.84225600     -0.10521000
C           7.11391600     -1.25190000      0.00847400
C           5.42125300      0.51311300      0.01123200
C           8.05514900     -0.27336400      0.23267400
H           7.39728300     -2.29572300     -0.07670500
C           6.40785300      1.48925400      0.24671100
H           4.38816700      0.80548700     -0.08586700
C           7.71696300      1.07315100      0.35221500
H           6.13743500      2.53528200      0.34115600
C           9.94520100      0.90679700      0.41604700
H          10.65350400      1.00507800      1.24019100
H          10.42328700      1.11096900     -0.55067600
O           8.85204800      1.81301800      0.61295300
O           9.40912400     -0.42780700      0.40613100
N          -1.22433500      1.62822600     -0.50748500
          56
 Energy =  -1933.59284700 a.u.  #Cluster:    7
C          -0.63327800     -1.17425900     -0.36261800
C          -0.27336700     -3.55647700     -1.11906400
C           1.10055200     -3.05111100     -1.55181200
C           1.63671600     -2.02405400     -0.55489000
C          -1.72990400     -0.47373300      0.12389600
C          -2.80445500     -1.39511300      0.03974900
H          -0.18703200     -4.25031200     -0.27540600
H           1.79015900     -3.89734700     -1.61563200
H           1.73765300     -2.46376100      0.44535300
H          -1.76276200      0.53293600      0.50495100
H          -0.79537000     -4.06774200     -1.93081400
H           1.04116400     -2.59021600     -2.54365500
H           2.61019600     -1.64929600     -0.86024500
N          -2.40639500     -2.58362700     -0.44822600
C          -4.15685000     -1.16396600      0.40752100
C          -5.30314100     -0.93842900      0.73033900
C          -6.70487200     -0.66378900      1.11053500
C          -7.62430000     -1.78982700      0.61821000
H          -7.54155300     -1.92129000     -0.46429000
H          -7.33685600     -2.72477900      1.10601200
H          -8.65897100     -1.54995500      0.87745900
O          -6.83957600     -0.58671100      2.52641400
H          -6.74480500      0.36041400      2.74931400
C          -7.09645900      0.68925200      0.52069500
S          -7.39891600      0.97619600     -1.17574100
C          -7.49922700      2.86824000      0.52957600
C          -7.65714700      2.65510900     -0.80786000
H          -7.60784100      3.82431500      1.02689300
H          -7.91227100      3.36465700     -1.58222200
N          -7.17900800      1.74989300      1.27254900
C           1.20343400      0.42467700     -0.56462300
N           2.51540300      0.56689100     -0.31893600
C           0.39951800      1.53146700     -0.89462600
C           3.02403900      1.80249300     -0.39324600
C           1.04408400      2.76012300     -0.93147700
H          -0.64468600      1.44016100     -1.15225700
N           2.34510800      2.93616700     -0.67874100
H           0.48244200      3.65595200     -1.18931100
N           0.71804600     -0.87164600     -0.49814300
N           4.36146700      2.00149800     -0.16385100
H           4.62837500      2.96881800     -0.29222300
C           5.40419800      1.11174600      0.14179500
C           6.71419200      1.64773900      0.05228700
C           5.21114100     -0.21978900      0.53632400
C           7.76287500      0.81175400      0.36114900
H           6.88403500      2.67565700     -0.25053400
C           6.30579000     -1.05067100      0.84133800
H           4.20728400     -0.60804600      0.60652600
C           7.57110400     -0.51378000      0.74526500
H           6.14954900     -2.07888500      1.14872600
C           9.77098800     -0.15000600      0.57386000
H          10.20047900     -0.48621300     -0.37857800
H          10.54028900     -0.03331200      1.33895100
O           8.79076800     -1.09608900      1.02083100
O           9.10386200      1.10857000      0.37415100
N          -1.08762900     -2.42098100     -0.69926300
          56
 Energy =  -1933.59279200 a.u.  #Cluster:    8
C          -0.62179900     -0.17582100     -0.73148300
C          -0.51485100     -2.32264400     -1.97096300
C           0.61234600     -2.62376200     -0.98480800
C           1.52896800     -1.41344800     -0.81719700
C          -1.63817800      0.60501400     -0.19612900
C          -2.83306100     -0.02225500     -0.63492700
H          -1.22610600     -3.14446900     -2.05781500
H           0.17234900     -2.90966300     -0.02334500
H           2.17393700     -1.54164800      0.05439200
H          -1.55234000      1.47216200      0.43718300
H          -0.12244800     -2.08546600     -2.96652400
H           1.21534900     -3.46460400     -1.33832500
H           2.17744800     -1.30442400     -1.69222300
N          -2.58015700     -1.12301000     -1.36904700
C          -4.16484300      0.38848900     -0.36192000
C          -5.29416500      0.75413600     -0.11671400
C          -6.67232700      1.19114400      0.19047400
C          -6.67273600      2.17091200      1.37225000
H          -6.20986400      1.72280200      2.25593100
H          -6.10623600      3.06413900      1.09648300
H          -7.70269700      2.45393000      1.60550600
O          -7.25220700      1.86206900     -0.92425600
H          -7.74130500      1.17570700     -1.41971200
C          -7.50773400     -0.05279300      0.48468600
S          -7.37278000     -1.01164200      1.93865300
C          -8.97375700     -1.66028300      0.06409600
C          -8.57312800     -2.09079800      1.29423400
H          -9.71562400     -2.14708700     -0.55706500
H          -8.90772400     -2.95320700      1.85327300
N          -8.36288200     -0.50745800     -0.38651200
C           1.48917800      1.02758400     -0.52696400
N           2.80414800      0.86566800     -0.30700800
C           0.92159000      2.31118400     -0.64220800
C           3.54479700      1.97266800     -0.17234200
C           1.79622200      3.37625800     -0.48511900
H          -0.11881100      2.47452800     -0.87643100
N           3.10451500      3.24852400     -0.23783900
H           1.42379800      4.39557100     -0.56752600
N           0.76792800     -0.14730200     -0.65782000
N           4.89229500      1.86479100      0.06200900
H           5.32837600      2.76940700      0.18375000
C           5.73721500      0.75264300      0.20375900
C           7.05716100      1.03696100      0.63821500
C           5.35510000     -0.56658600     -0.07790900
C           7.92430400     -0.02412900      0.76494700
H           7.37088400      2.05047000      0.86532400
C           6.26421600     -1.63120500      0.06977000
H           4.34952000     -0.76135600     -0.41446400
C           7.54268200     -1.33570500      0.49005300
H           5.96046700     -2.65013900     -0.14404400
C           9.72681400     -1.33209600      0.96942300
H          10.37123500     -1.33130500      0.08096200
H          10.26876500     -1.66886600      1.85466500
O           8.59810300     -2.18697700      0.74449700
O           9.22896700     -0.00157500      1.19409400
N          -1.23263100     -1.17709300     -1.43270600
